
     Program PWSCF v.6.5 starts on 22Aug2022 at 17: 9:59 

     This program is part of the open-source Quantum ESPRESSO suite
     for quantum simulation of materials; please cite
         "P. Giannozzi et al., J. Phys.:Condens. Matter 21 395502 (2009);
         "P. Giannozzi et al., J. Phys.:Condens. Matter 29 465901 (2017);
          URL http://www.quantum-espresso.org", 
     in publications or presentations arising from this work. More details at
     http://www.quantum-espresso.org/quote

     Parallel version (MPI), running on     8 processors

     MPI processes distributed on     1 nodes
     R & G space division:  proc/nbgrp/npool/nimage =       8
     Waiting for input...
     Reading input from standard input

     Current dimensions of program PWSCF are:
     Max number of different atomic species (ntypx) = 10
     Max number of k-points (npk) =  40000
     Max angular momentum in pseudopotentials (lmaxx) =  3
               file Al.pbesol-n-kjpaw_psl.1.0.0.UPF: wavefunction(s)  3S 3P renormalized
               file O.pbesol-n-kjpaw_psl.0.1.UPF: wavefunction(s)  2P renormalized

     Subspace diagonalization in iterative solution of the eigenvalue problem:
     one sub-group per band group will be used
     scalapack distributed-memory algorithm (size of sub-group:  2*  2 procs)

 
     Parallelization info
     --------------------
     sticks:   dense  smooth     PW     G-vecs:    dense   smooth      PW
     Min        1030     514    143                87478    30912    4533
     Max        1031     515    144                87483    30917    4536
     Sum        8245    4119   1147               699835   247329   36281
 


     bravais-lattice index     =            0
     lattice parameter (alat)  =      19.1327  a.u.
     unit-cell volume          =    1831.1486 (a.u.)^3
     number of atoms/cell      =           23
     number of atomic types    =            4
     number of electrons       =       288.00
     number of Kohn-Sham states=          173
     kinetic-energy cutoff     =     100.0000  Ry
     charge density cutoff     =     800.0000  Ry
     convergence threshold     =      1.0E-06
     mixing beta               =       0.4000
     number of iterations used =            8  plain     mixing
     Exchange-correlation= SLA  PW   PSX  PSC
                           (   1   4  10   8   0   0   0)

     celldm(1)=  19.132690  celldm(2)=   0.000000  celldm(3)=   0.000000
     celldm(4)=   0.000000  celldm(5)=   0.000000  celldm(6)=   0.000000

     crystal axes: (cart. coord. in units of alat)
               a(1) = (   1.000000   0.000000   0.000000 )  
               a(2) = (   0.000000   0.353553   0.000000 )  
               a(3) = (   0.000000   0.000000   0.739504 )  

     reciprocal axes: (cart. coord. in units 2 pi/alat)
               b(1) = (  1.000000  0.000000  0.000000 )  
               b(2) = (  0.000000  2.828428  0.000000 )  
               b(3) = (  0.000000  0.000000  1.352258 )  


     PseudoPot. # 1 for Al read from file:
     /home/zczlx99/q-e/pseudo/DFT/Al.pbesol-n-kjpaw_psl.1.0.0.UPF
     MD5 check sum: 3401bcfaaf5f9b08e46a00870a1ef39d
     Pseudo is Projector augmented-wave + core cor, Zval =  3.0
     Generated using "atomic" code by A. Dal Corso v.6.0 svn rev. 13079
     Shape of augmentation charge: PSQ
     Using radial grid of 1135 points,  6 beta functions with: 
                l(1) =   0
                l(2) =   0
                l(3) =   1
                l(4) =   1
                l(5) =   2
                l(6) =   2
     Q(r) pseudized with 0 coefficients 


     PseudoPot. # 2 for Ni read from file:
     /home/zczlx99/q-e/pseudo/DFT/ni_pbesol_v1.4.uspp.F.UPF
     MD5 check sum: de937c0c8ae4b350e69c02b76d8a83cb
     Pseudo is Ultrasoft + core correction, Zval = 18.0
     Generated by new atomic code, or converted to UPF format
     Using radial grid of  865 points,  6 beta functions with: 
                l(1) =   0
                l(2) =   0
                l(3) =   1
                l(4) =   1
                l(5) =   2
                l(6) =   2
     Q(r) pseudized with 10 coefficients,  rinner =    0.980   0.980   0.980
                                                       0.980   0.980

     PseudoPot. # 3 for O  read from file:
     /home/zczlx99/q-e/pseudo/DFT/O.pbesol-n-kjpaw_psl.0.1.UPF
     MD5 check sum: 81d73d1479e654e5638b0319f0d6c2c7
     Pseudo is Projector augmented-wave + core cor, Zval =  6.0
     Generated using "atomic" code by A. Dal Corso v.6.0 svn rev. 13079
     Shape of augmentation charge: BESSEL
     Using radial grid of 1095 points,  4 beta functions with: 
                l(1) =   0
                l(2) =   0
                l(3) =   1
                l(4) =   1
     Q(r) pseudized with 0 coefficients 


     PseudoPot. # 4 for Zr read from file:
     /home/zczlx99/q-e/pseudo/DFT/zr_pbesol_v1.uspp.F.UPF
     MD5 check sum: f29f2a20533738a515abe666fee35838
     Pseudo is Ultrasoft + core correction, Zval = 12.0
     Generated by new atomic code, or converted to UPF format
     Using radial grid of  887 points,  6 beta functions with: 
                l(1) =   0
                l(2) =   0
                l(3) =   1
                l(4) =   1
                l(5) =   2
                l(6) =   2
     Q(r) pseudized with  6 coefficients,  rinner =    1.200   1.200   1.200
                                                       1.200   1.200

     atomic species   valence    mass     pseudopotential
        Al             3.00    26.98154     Al( 1.00)
        Ni            18.00    58.69340     Ni( 1.00)
        O              6.00    15.99940     O ( 1.00)
        Zr            12.00    91.22400     Zr( 1.00)

     Starting magnetic structure 
     atomic species   magnetization
        Al           0.100
        Ni           0.278
        O            0.100
        Zr           0.417

     No symmetry found


                                    s                        frac. trans.

      isym =  1     identity                                     

 cryst.   s( 1) = (     1          0          0      )
                  (     0          1          0      )
                  (     0          0          1      )

 cart.    s( 1) = (  1.0000000  0.0000000  0.0000000 )
                  (  0.0000000  1.0000000  0.0000000 )
                  (  0.0000000  0.0000000  1.0000000 )


   Cartesian axes

     site n.     atom                  positions (alat units)
         1           Zr  tau(   1) = (   0.0468750   0.1459866   0.1459866  )
         2           Zr  tau(   2) = (   0.5468750   0.1459866   0.1459866  )
         3           Al  tau(   3) = (   0.2968750   0.3227633   0.3227633  )
         4           Al  tau(   4) = (   0.7968750   0.3227633   0.3227633  )
         5           O   tau(   5) = (   0.1718750   0.1459866   0.3227633  )
         6           O   tau(   6) = (   0.6718750   0.1459866   0.3227633  )
         7           O   tau(   7) = (   0.4218749   0.1459866   0.3227633  )
         8           O   tau(   8) = (   0.1718750   0.3227633   0.1459866  )
         9           O   tau(   9) = (   0.6718750   0.3227633   0.1459866  )
        10           O   tau(  10) = (   0.4218749   0.3227633   0.1459866  )
        11           O   tau(  11) = (   0.9218750   0.3227633   0.1459866  )
        12           Ni  tau(  12) = (   0.0699886   0.1523850   0.5188821  )
        13           Ni  tau(  13) = (   0.4107433   0.1523850   0.5188821  )
        14           Ni  tau(  14) = (   0.7514981   0.1523850   0.5188821  )
        15           Ni  tau(  15) = (   0.2403659   0.3227624   0.5188821  )
        16           Ni  tau(  16) = (   0.5811207   0.3227624   0.5188821  )
        17           Ni  tau(  17) = (   0.9218755   0.3227624   0.5188821  )
        18           Ni  tau(  18) = (   0.2403659   0.1523850   0.6892595  )
        19           Ni  tau(  19) = (   0.5811207   0.1523850   0.6892595  )
        20           Ni  tau(  20) = (   0.9218755   0.1523850   0.6892595  )
        21           Ni  tau(  21) = (   0.0699886   0.3227624   0.6892595  )
        22           Ni  tau(  22) = (   0.4107433   0.3227624   0.6892595  )
        23           Ni  tau(  23) = (   0.7514981   0.3227624   0.6892595  )

   Crystallographic axes

     site n.     atom                  positions (cryst. coord.)
         1           Zr  tau(   1) = (  0.0468750  0.4129124  0.1974114  )
         2           Zr  tau(   2) = (  0.5468750  0.4129124  0.1974114  )
         3           Al  tau(   3) = (  0.2968750  0.9129127  0.4364591  )
         4           Al  tau(   4) = (  0.7968750  0.9129127  0.4364591  )
         5           O   tau(   5) = (  0.1718750  0.4129124  0.4364591  )
         6           O   tau(   6) = (  0.6718750  0.4129124  0.4364591  )
         7           O   tau(   7) = (  0.4218749  0.4129124  0.4364591  )
         8           O   tau(   8) = (  0.1718750  0.9129127  0.1974114  )
         9           O   tau(   9) = (  0.6718750  0.9129127  0.1974114  )
        10           O   tau(  10) = (  0.4218749  0.9129127  0.1974114  )
        11           O   tau(  11) = (  0.9218750  0.9129127  0.1974114  )
        12           Ni  tau(  12) = (  0.0699886  0.4310101  0.7016622  )
        13           Ni  tau(  13) = (  0.4107433  0.4310101  0.7016622  )
        14           Ni  tau(  14) = (  0.7514981  0.4310101  0.7016622  )
        15           Ni  tau(  15) = (  0.2403659  0.9129102  0.7016622  )
        16           Ni  tau(  16) = (  0.5811207  0.9129102  0.7016622  )
        17           Ni  tau(  17) = (  0.9218755  0.9129102  0.7016622  )
        18           Ni  tau(  18) = (  0.2403659  0.4310101  0.9320563  )
        19           Ni  tau(  19) = (  0.5811207  0.4310101  0.9320563  )
        20           Ni  tau(  20) = (  0.9218755  0.4310101  0.9320563  )
        21           Ni  tau(  21) = (  0.0699886  0.9129102  0.9320563  )
        22           Ni  tau(  22) = (  0.4107433  0.9129102  0.9320563  )
        23           Ni  tau(  23) = (  0.7514981  0.9129102  0.9320563  )

     number of k points=     8  Marzari-Vanderbilt smearing, width (Ry)=  0.0147
                       cart. coord. in units 2pi/alat
        k(    1) = (   0.0000000   0.0000000   0.0000000), wk =   0.1250000
        k(    2) = (   0.0000000   0.0000000  -0.6761288), wk =   0.1250000
        k(    3) = (   0.0000000  -1.4142138   0.0000000), wk =   0.1250000
        k(    4) = (   0.0000000  -1.4142138  -0.6761288), wk =   0.1250000
        k(    5) = (  -0.5000000   0.0000000   0.0000000), wk =   0.1250000
        k(    6) = (  -0.5000000   0.0000000  -0.6761288), wk =   0.1250000
        k(    7) = (  -0.5000000  -1.4142138   0.0000000), wk =   0.1250000
        k(    8) = (  -0.5000000  -1.4142138  -0.6761288), wk =   0.1250000

                       cryst. coord.
        k(    1) = (   0.0000000   0.0000000   0.0000000), wk =   0.1250000
        k(    2) = (   0.0000000   0.0000000  -0.5000000), wk =   0.1250000
        k(    3) = (   0.0000000  -0.5000000   0.0000000), wk =   0.1250000
        k(    4) = (   0.0000000  -0.5000000  -0.5000000), wk =   0.1250000
        k(    5) = (  -0.5000000   0.0000000   0.0000000), wk =   0.1250000
        k(    6) = (  -0.5000000   0.0000000  -0.5000000), wk =   0.1250000
        k(    7) = (  -0.5000000  -0.5000000   0.0000000), wk =   0.1250000
        k(    8) = (  -0.5000000  -0.5000000  -0.5000000), wk =   0.1250000

     Dense  grid:   699835 G-vectors     FFT dimensions: ( 180,  64, 128)

     Smooth grid:   247329 G-vectors     FFT dimensions: ( 125,  45,  96)

     Dynamical RAM for                 wfc:      10.20 MB

     Dynamical RAM for     wfc (w. buffer):     173.45 MB

     Dynamical RAM for           str. fact:       5.34 MB

     Dynamical RAM for           local pot:       0.00 MB

     Dynamical RAM for          nlocal pot:      20.29 MB

     Dynamical RAM for                qrad:      27.61 MB

     Dynamical RAM for          rho,v,vnew:      16.45 MB

     Dynamical RAM for               rhoin:       5.48 MB

     Dynamical RAM for            rho*nmix:      42.71 MB

     Dynamical RAM for           G-vectors:       5.24 MB

     Dynamical RAM for          h,s,v(r/c):       5.48 MB

     Dynamical RAM for          <psi|beta>:       0.91 MB

     Dynamical RAM for                 psi:      40.81 MB

     Dynamical RAM for                hpsi:      40.81 MB

     Dynamical RAM for                spsi:      40.81 MB

     Dynamical RAM for      wfcinit/wfcrot:      26.80 MB

     Dynamical RAM for           addusdens:     265.63 MB

     Dynamical RAM for          addusforce:     339.23 MB

     Dynamical RAM for         addusstress:     270.30 MB

     Estimated static dynamical RAM per process >     311.68 MB

     Estimated max dynamical RAM per process >     650.91 MB

     Estimated total dynamical RAM >       5.09 GB
     Generating pointlists ...
     new r_m :   0.0842 (alat units)  1.6108 (a.u.) for type    1
     new r_m :   0.0811 (alat units)  1.5511 (a.u.) for type    2
     new r_m :   0.0811 (alat units)  1.5511 (a.u.) for type    3
     new r_m :   0.0822 (alat units)  1.5729 (a.u.) for type    4

     Check: negative core charge=   -0.000003

     Initial potential from superposition of free atoms

     starting charge  263.99167, renormalised to  288.00000
     Starting wfcs are  218 randomized atomic wfcs
     Checking if some PAW data can be deallocated... 
       PAW data deallocated on    6 nodes for type:  1
       PAW data deallocated on    5 nodes for type:  3

     total cpu time spent up to now is      232.6 secs

     Self-consistent Calculation

     iteration #  1     ecut=   100.00 Ry     beta= 0.40
     Davidson diagonalization with overlap
     ethr =  1.00E-02,  avg # of iterations =  3.5

     total cpu time spent up to now is      961.0 secs

     total energy              =   -4586.57818898 Ry
     Harris-Foulkes estimate   =   -4732.52237846 Ry
     estimated scf accuracy    <     271.64475904 Ry

     total magnetization       =    21.26 Bohr mag/cell
     absolute magnetization    =    23.09 Bohr mag/cell

     iteration #  2     ecut=   100.00 Ry     beta= 0.40
     Davidson diagonalization with overlap
     ethr =  1.00E-02,  avg # of iterations =  4.1

     total cpu time spent up to now is     1785.3 secs

     total energy              =   -4588.76127134 Ry
     Harris-Foulkes estimate   =   -4746.30927214 Ry
     estimated scf accuracy    <     596.89565817 Ry

     total magnetization       =     7.87 Bohr mag/cell
     absolute magnetization    =     9.26 Bohr mag/cell

     iteration #  3     ecut=   100.00 Ry     beta= 0.40
     Davidson diagonalization with overlap
     ethr =  1.00E-02,  avg # of iterations =  5.1

     total cpu time spent up to now is     2710.7 secs

     total energy              =   -4603.02312545 Ry
     Harris-Foulkes estimate   =   -4730.16792559 Ry
     estimated scf accuracy    <    1051.91106258 Ry

     total magnetization       =     5.10 Bohr mag/cell
     absolute magnetization    =     6.01 Bohr mag/cell

     iteration #  4     ecut=   100.00 Ry     beta= 0.40
     Davidson diagonalization with overlap
     ethr =  1.00E-02,  avg # of iterations =  4.3

     total cpu time spent up to now is     3493.8 secs

     total energy              =   -4659.93841570 Ry
     Harris-Foulkes estimate   =   -4716.41456384 Ry
     estimated scf accuracy    <     496.26866957 Ry

     total magnetization       =     8.10 Bohr mag/cell
     absolute magnetization    =     9.71 Bohr mag/cell

     iteration #  5     ecut=   100.00 Ry     beta= 0.40
     Davidson diagonalization with overlap
     ethr =  1.00E-02,  avg # of iterations =  4.0

     total cpu time spent up to now is     4188.4 secs

     total energy              =   -4682.44737320 Ry
     Harris-Foulkes estimate   =   -4694.98825014 Ry
     estimated scf accuracy    <     158.89979318 Ry

     total magnetization       =     5.69 Bohr mag/cell
     absolute magnetization    =     7.08 Bohr mag/cell

     iteration #  6     ecut=   100.00 Ry     beta= 0.40
     Davidson diagonalization with overlap
     ethr =  1.00E-02,  avg # of iterations =  2.5

     total cpu time spent up to now is     4596.0 secs

     total energy              =   -4682.55334199 Ry
     Harris-Foulkes estimate   =   -4687.45497880 Ry
     estimated scf accuracy    <      69.49440650 Ry

     total magnetization       =    10.20 Bohr mag/cell
     absolute magnetization    =    12.11 Bohr mag/cell

     iteration #  7     ecut=   100.00 Ry     beta= 0.40
     Davidson diagonalization with overlap
     ethr =  1.00E-02,  avg # of iterations =  1.0

     total cpu time spent up to now is     4936.6 secs

     total energy              =   -4682.43510344 Ry
     Harris-Foulkes estimate   =   -4684.60905221 Ry
     estimated scf accuracy    <      43.95257463 Ry

     total magnetization       =     8.26 Bohr mag/cell
     absolute magnetization    =    10.53 Bohr mag/cell

     iteration #  8     ecut=   100.00 Ry     beta= 0.40
     Davidson diagonalization with overlap
     ethr =  1.00E-02,  avg # of iterations =  1.0

     total cpu time spent up to now is     5283.3 secs

     total energy              =   -4680.40462508 Ry
     Harris-Foulkes estimate   =   -4683.13469936 Ry
     estimated scf accuracy    <      34.87939686 Ry

     total magnetization       =    10.75 Bohr mag/cell
     absolute magnetization    =    12.92 Bohr mag/cell

     iteration #  9     ecut=   100.00 Ry     beta= 0.40
     Davidson diagonalization with overlap
     ethr =  1.00E-02,  avg # of iterations =  1.0

     total cpu time spent up to now is     5636.1 secs

     total energy              =   -4678.97517559 Ry
     Harris-Foulkes estimate   =   -4683.04994182 Ry
     estimated scf accuracy    <      49.95083565 Ry

     total magnetization       =     6.30 Bohr mag/cell
     absolute magnetization    =     8.54 Bohr mag/cell

     iteration # 10     ecut=   100.00 Ry     beta= 0.40
     Davidson diagonalization with overlap
     ethr =  1.00E-02,  avg # of iterations =  1.0

     total cpu time spent up to now is     5984.4 secs

     total energy              =   -4679.75843645 Ry
     Harris-Foulkes estimate   =   -4680.93643677 Ry
     estimated scf accuracy    <      13.11705618 Ry

     total magnetization       =    10.36 Bohr mag/cell
     absolute magnetization    =    12.56 Bohr mag/cell

     iteration # 11     ecut=   100.00 Ry     beta= 0.40
     Davidson diagonalization with overlap
     ethr =  4.55E-03,  avg # of iterations =  2.6

     total cpu time spent up to now is     6381.9 secs

     total energy              =   -4679.50240989 Ry
     Harris-Foulkes estimate   =   -4681.66439842 Ry
     estimated scf accuracy    <      20.23178658 Ry

     total magnetization       =    12.15 Bohr mag/cell
     absolute magnetization    =    13.95 Bohr mag/cell

     iteration # 12     ecut=   100.00 Ry     beta= 0.40
     Davidson diagonalization with overlap
     ethr =  4.55E-03,  avg # of iterations =  1.0

     total cpu time spent up to now is     6740.0 secs

     total energy              =   -4680.25558538 Ry
     Harris-Foulkes estimate   =   -4680.68128993 Ry
     estimated scf accuracy    <       4.43217875 Ry

     total magnetization       =    10.01 Bohr mag/cell
     absolute magnetization    =    11.87 Bohr mag/cell

     iteration # 13     ecut=   100.00 Ry     beta= 0.40
     Davidson diagonalization with overlap
     ethr =  1.54E-03,  avg # of iterations =  3.4

     total cpu time spent up to now is     7188.7 secs

     total energy              =   -4680.08898919 Ry
     Harris-Foulkes estimate   =   -4680.95326587 Ry
     estimated scf accuracy    <      13.12577075 Ry

     total magnetization       =     9.79 Bohr mag/cell
     absolute magnetization    =    11.57 Bohr mag/cell

     iteration # 14     ecut=   100.00 Ry     beta= 0.40
     Davidson diagonalization with overlap
     ethr =  1.54E-03,  avg # of iterations =  1.3

     total cpu time spent up to now is     7553.7 secs

     total energy              =   -4680.43720880 Ry
     Harris-Foulkes estimate   =   -4680.61659901 Ry
     estimated scf accuracy    <       2.27612737 Ry

     total magnetization       =     9.61 Bohr mag/cell
     absolute magnetization    =    11.54 Bohr mag/cell

     iteration # 15     ecut=   100.00 Ry     beta= 0.40
     Davidson diagonalization with overlap
     ethr =  7.90E-04,  avg # of iterations =  1.9

     total cpu time spent up to now is     7947.0 secs

     total energy              =   -4680.45146141 Ry
     Harris-Foulkes estimate   =   -4680.67476832 Ry
     estimated scf accuracy    <       3.56941577 Ry

     total magnetization       =     9.34 Bohr mag/cell
     absolute magnetization    =    11.15 Bohr mag/cell

     iteration # 16     ecut=   100.00 Ry     beta= 0.40
     Davidson diagonalization with overlap
     ethr =  7.90E-04,  avg # of iterations =  1.3

     total cpu time spent up to now is     8322.5 secs

     total energy              =   -4680.40660995 Ry
     Harris-Foulkes estimate   =   -4680.70608094 Ry
     estimated scf accuracy    <       5.03634679 Ry

     total magnetization       =     9.45 Bohr mag/cell
     absolute magnetization    =    11.32 Bohr mag/cell

     iteration # 17     ecut=   100.00 Ry     beta= 0.40
     Davidson diagonalization with overlap
     ethr =  7.90E-04,  avg # of iterations =  1.2

     total cpu time spent up to now is     8693.4 secs

     total energy              =   -4680.26700477 Ry
     Harris-Foulkes estimate   =   -4680.79346086 Ry
     estimated scf accuracy    <       5.61989784 Ry

     total magnetization       =    10.56 Bohr mag/cell
     absolute magnetization    =    12.40 Bohr mag/cell

     iteration # 18     ecut=   100.00 Ry     beta= 0.40
     Davidson diagonalization with overlap
     ethr =  7.90E-04,  avg # of iterations =  1.8

     total cpu time spent up to now is     9082.1 secs

     total energy              =   -4680.12703626 Ry
     Harris-Foulkes estimate   =   -4680.98759022 Ry
     estimated scf accuracy    <      13.70326356 Ry

     total magnetization       =     9.29 Bohr mag/cell
     absolute magnetization    =    11.01 Bohr mag/cell

     iteration # 19     ecut=   100.00 Ry     beta= 0.40
     Davidson diagonalization with overlap
     ethr =  7.90E-04,  avg # of iterations =  3.1

     total cpu time spent up to now is     9516.0 secs

     total energy              =   -4680.32338460 Ry
     Harris-Foulkes estimate   =   -4680.97238022 Ry
     estimated scf accuracy    <       7.36823374 Ry

     total magnetization       =     8.85 Bohr mag/cell
     absolute magnetization    =    10.67 Bohr mag/cell

     iteration # 20     ecut=   100.00 Ry     beta= 0.40
     Davidson diagonalization with overlap
     ethr =  7.90E-04,  avg # of iterations =  1.0

     total cpu time spent up to now is     9869.7 secs

     total energy              =   -4680.51647842 Ry
     Harris-Foulkes estimate   =   -4680.69020308 Ry
     estimated scf accuracy    <       3.52535497 Ry

     total magnetization       =     9.38 Bohr mag/cell
     absolute magnetization    =    11.06 Bohr mag/cell

     iteration # 21     ecut=   100.00 Ry     beta= 0.40
     Davidson diagonalization with overlap
     ethr =  7.90E-04,  avg # of iterations =  1.0

     total cpu time spent up to now is    10220.7 secs

     total energy              =   -4680.55395372 Ry
     Harris-Foulkes estimate   =   -4680.64069763 Ry
     estimated scf accuracy    <       1.74042496 Ry

     total magnetization       =     9.16 Bohr mag/cell
     absolute magnetization    =    10.78 Bohr mag/cell

     iteration # 22     ecut=   100.00 Ry     beta= 0.40
     Davidson diagonalization with overlap
     ethr =  6.04E-04,  avg # of iterations =  1.0

     total cpu time spent up to now is    10574.5 secs

     total energy              =   -4680.57384269 Ry
     Harris-Foulkes estimate   =   -4680.62028817 Ry
     estimated scf accuracy    <       0.83001058 Ry

     total magnetization       =     9.08 Bohr mag/cell
     absolute magnetization    =    10.69 Bohr mag/cell

     iteration # 23     ecut=   100.00 Ry     beta= 0.40
     Davidson diagonalization with overlap
     ethr =  2.88E-04,  avg # of iterations =  1.3

     total cpu time spent up to now is    10949.0 secs

     total energy              =   -4680.58894676 Ry
     Harris-Foulkes estimate   =   -4680.61491119 Ry
     estimated scf accuracy    <       0.66465034 Ry

     total magnetization       =     8.95 Bohr mag/cell
     absolute magnetization    =    10.52 Bohr mag/cell

     iteration # 24     ecut=   100.00 Ry     beta= 0.40
     Davidson diagonalization with overlap
     ethr =  2.31E-04,  avg # of iterations =  1.0

     total cpu time spent up to now is    11300.3 secs

     total energy              =   -4680.58627176 Ry
     Harris-Foulkes estimate   =   -4680.61958489 Ry
     estimated scf accuracy    <       0.44534536 Ry

     total magnetization       =     9.03 Bohr mag/cell
     absolute magnetization    =    10.55 Bohr mag/cell

     iteration # 25     ecut=   100.00 Ry     beta= 0.40
     Davidson diagonalization with overlap
     ethr =  1.55E-04,  avg # of iterations =  1.7

     total cpu time spent up to now is    11675.3 secs

     total energy              =   -4680.59464430 Ry
     Harris-Foulkes estimate   =   -4680.61292531 Ry
     estimated scf accuracy    <       0.42157148 Ry

     total magnetization       =     9.06 Bohr mag/cell
     absolute magnetization    =    10.60 Bohr mag/cell

     iteration # 26     ecut=   100.00 Ry     beta= 0.40
     Davidson diagonalization with overlap
     ethr =  1.46E-04,  avg # of iterations =  1.0

     total cpu time spent up to now is    12027.6 secs

     total energy              =   -4680.59299576 Ry
     Harris-Foulkes estimate   =   -4680.62196470 Ry
     estimated scf accuracy    <       0.57982648 Ry

     total magnetization       =     9.04 Bohr mag/cell
     absolute magnetization    =    10.52 Bohr mag/cell

     iteration # 27     ecut=   100.00 Ry     beta= 0.40
     Davidson diagonalization with overlap
     ethr =  1.46E-04,  avg # of iterations =  1.2

     total cpu time spent up to now is    12389.3 secs

     total energy              =   -4680.60343704 Ry
     Harris-Foulkes estimate   =   -4680.62290815 Ry
     estimated scf accuracy    <       0.42033547 Ry

     total magnetization       =     8.93 Bohr mag/cell
     absolute magnetization    =    10.36 Bohr mag/cell

     iteration # 28     ecut=   100.00 Ry     beta= 0.40
     Davidson diagonalization with overlap
     ethr =  1.46E-04,  avg # of iterations =  1.0

     total cpu time spent up to now is    12754.7 secs

     total energy              =   -4680.60787657 Ry
     Harris-Foulkes estimate   =   -4680.61995698 Ry
     estimated scf accuracy    <       0.21757082 Ry

     total magnetization       =     8.82 Bohr mag/cell
     absolute magnetization    =    10.18 Bohr mag/cell

     iteration # 29     ecut=   100.00 Ry     beta= 0.40
     Davidson diagonalization with overlap
     ethr =  7.55E-05,  avg # of iterations =  1.0

     total cpu time spent up to now is    13116.6 secs

     total energy              =   -4680.59514825 Ry
     Harris-Foulkes estimate   =   -4680.63231749 Ry
     estimated scf accuracy    <       0.49361180 Ry

     total magnetization       =     8.63 Bohr mag/cell
     absolute magnetization    =     9.96 Bohr mag/cell

     iteration # 30     ecut=   100.00 Ry     beta= 0.40
     Davidson diagonalization with overlap
     ethr =  7.55E-05,  avg # of iterations =  1.1

     total cpu time spent up to now is    13488.6 secs

     total energy              =   -4680.58106508 Ry
     Harris-Foulkes estimate   =   -4680.64261958 Ry
     estimated scf accuracy    <       0.82191553 Ry

     total magnetization       =     8.73 Bohr mag/cell
     absolute magnetization    =    10.02 Bohr mag/cell

     iteration # 31     ecut=   100.00 Ry     beta= 0.40
     Davidson diagonalization with overlap
     ethr =  7.55E-05,  avg # of iterations =  2.0

     total cpu time spent up to now is    13890.7 secs

     total energy              =   -4680.55870705 Ry
     Harris-Foulkes estimate   =   -4680.66625745 Ry
     estimated scf accuracy    <       1.56788819 Ry

     total magnetization       =     8.96 Bohr mag/cell
     absolute magnetization    =    10.29 Bohr mag/cell

     iteration # 32     ecut=   100.00 Ry     beta= 0.40
     Davidson diagonalization with overlap
     ethr =  7.55E-05,  avg # of iterations =  2.3

     total cpu time spent up to now is    14312.5 secs

     total energy              =   -4680.56632437 Ry
     Harris-Foulkes estimate   =   -4680.66435934 Ry
     estimated scf accuracy    <       2.39604665 Ry

     total magnetization       =     8.82 Bohr mag/cell
     absolute magnetization    =    10.13 Bohr mag/cell

     iteration # 33     ecut=   100.00 Ry     beta= 0.40
     Davidson diagonalization with overlap
     ethr =  7.55E-05,  avg # of iterations =  1.5

     total cpu time spent up to now is    14694.4 secs

     total energy              =   -4680.60764192 Ry
     Harris-Foulkes estimate   =   -4680.62206968 Ry
     estimated scf accuracy    <       0.19805453 Ry

     total magnetization       =     8.95 Bohr mag/cell
     absolute magnetization    =    10.28 Bohr mag/cell

     iteration # 34     ecut=   100.00 Ry     beta= 0.40
     Davidson diagonalization with overlap
     ethr =  6.88E-05,  avg # of iterations =  1.3

     total cpu time spent up to now is    15076.5 secs

     total energy              =   -4680.61031684 Ry
     Harris-Foulkes estimate   =   -4680.62116444 Ry
     estimated scf accuracy    <       0.24896821 Ry

     total magnetization       =     8.80 Bohr mag/cell
     absolute magnetization    =    10.12 Bohr mag/cell

     iteration # 35     ecut=   100.00 Ry     beta= 0.40
     Davidson diagonalization with overlap
     ethr =  6.88E-05,  avg # of iterations =  1.0

     total cpu time spent up to now is    15442.3 secs

     total energy              =   -4680.61256616 Ry
     Harris-Foulkes estimate   =   -4680.61920817 Ry
     estimated scf accuracy    <       0.10089552 Ry

     total magnetization       =     8.80 Bohr mag/cell
     absolute magnetization    =    10.08 Bohr mag/cell

     iteration # 36     ecut=   100.00 Ry     beta= 0.40
     Davidson diagonalization with overlap
     ethr =  3.50E-05,  avg # of iterations =  1.0

     total cpu time spent up to now is    15811.3 secs

     total energy              =   -4680.61401893 Ry
     Harris-Foulkes estimate   =   -4680.61909472 Ry
     estimated scf accuracy    <       0.06227904 Ry

     total magnetization       =     8.70 Bohr mag/cell
     absolute magnetization    =     9.96 Bohr mag/cell

     iteration # 37     ecut=   100.00 Ry     beta= 0.40
     Davidson diagonalization with overlap
     ethr =  2.16E-05,  avg # of iterations =  1.8

     total cpu time spent up to now is    16195.0 secs

     total energy              =   -4680.61189674 Ry
     Harris-Foulkes estimate   =   -4680.62219629 Ry
     estimated scf accuracy    <       0.32422726 Ry

     total magnetization       =     8.71 Bohr mag/cell
     absolute magnetization    =     9.98 Bohr mag/cell

     iteration # 38     ecut=   100.00 Ry     beta= 0.40
     Davidson diagonalization with overlap
     ethr =  2.16E-05,  avg # of iterations =  1.0

     total cpu time spent up to now is    16552.8 secs

     total energy              =   -4680.61374986 Ry
     Harris-Foulkes estimate   =   -4680.61886485 Ry
     estimated scf accuracy    <       0.08009290 Ry

     total magnetization       =     8.69 Bohr mag/cell
     absolute magnetization    =     9.94 Bohr mag/cell

     iteration # 39     ecut=   100.00 Ry     beta= 0.40
     Davidson diagonalization with overlap
     ethr =  2.16E-05,  avg # of iterations =  1.0

     total cpu time spent up to now is    16916.7 secs

     total energy              =   -4680.60690879 Ry
     Harris-Foulkes estimate   =   -4680.62422848 Ry
     estimated scf accuracy    <       0.25819540 Ry

     total magnetization       =     8.65 Bohr mag/cell
     absolute magnetization    =     9.92 Bohr mag/cell

     iteration # 40     ecut=   100.00 Ry     beta= 0.40
     Davidson diagonalization with overlap
     ethr =  2.16E-05,  avg # of iterations =  2.0

     total cpu time spent up to now is    17314.7 secs

     total energy              =   -4680.60001901 Ry
     Harris-Foulkes estimate   =   -4680.63129237 Ry
     estimated scf accuracy    <       0.52630301 Ry

     total magnetization       =     8.71 Bohr mag/cell
     absolute magnetization    =     9.96 Bohr mag/cell

     iteration # 41     ecut=   100.00 Ry     beta= 0.40
     Davidson diagonalization with overlap
     ethr =  2.16E-05,  avg # of iterations =  2.0

     total cpu time spent up to now is    17715.3 secs

     total energy              =   -4680.60604741 Ry
     Harris-Foulkes estimate   =   -4680.62572274 Ry
     estimated scf accuracy    <       0.29326403 Ry

     total magnetization       =     8.80 Bohr mag/cell
     absolute magnetization    =    10.06 Bohr mag/cell

     iteration # 42     ecut=   100.00 Ry     beta= 0.40
     Davidson diagonalization with overlap
     ethr =  2.16E-05,  avg # of iterations =  1.2

     total cpu time spent up to now is    18077.5 secs

     total energy              =   -4680.60602304 Ry
     Harris-Foulkes estimate   =   -4680.62676239 Ry
     estimated scf accuracy    <       0.56944710 Ry

     total magnetization       =     8.77 Bohr mag/cell
     absolute magnetization    =    10.00 Bohr mag/cell

     iteration # 43     ecut=   100.00 Ry     beta= 0.40
     Davidson diagonalization with overlap
     ethr =  2.16E-05,  avg # of iterations =  1.0

     total cpu time spent up to now is    18434.2 secs

     total energy              =   -4680.61374184 Ry
     Harris-Foulkes estimate   =   -4680.61965918 Ry
     estimated scf accuracy    <       0.08036266 Ry

     total magnetization       =     8.76 Bohr mag/cell
     absolute magnetization    =    10.00 Bohr mag/cell

     iteration # 44     ecut=   100.00 Ry     beta= 0.40
     Davidson diagonalization with overlap
     ethr =  2.16E-05,  avg # of iterations =  1.6

     total cpu time spent up to now is    18809.5 secs

     total energy              =   -4680.61298735 Ry
     Harris-Foulkes estimate   =   -4680.61959890 Ry
     estimated scf accuracy    <       0.14159214 Ry

     total magnetization       =     8.73 Bohr mag/cell
     absolute magnetization    =     9.98 Bohr mag/cell

     iteration # 45     ecut=   100.00 Ry     beta= 0.40
     Davidson diagonalization with overlap
     ethr =  2.16E-05,  avg # of iterations =  1.1

     total cpu time spent up to now is    19173.3 secs

     total energy              =   -4680.60750375 Ry
     Harris-Foulkes estimate   =   -4680.62622796 Ry
     estimated scf accuracy    <       0.29197365 Ry

     total magnetization       =     8.73 Bohr mag/cell
     absolute magnetization    =     9.93 Bohr mag/cell

     iteration # 46     ecut=   100.00 Ry     beta= 0.40
     Davidson diagonalization with overlap
     ethr =  2.16E-05,  avg # of iterations =  1.0

     total cpu time spent up to now is    19532.0 secs

     total energy              =   -4680.61513493 Ry
     Harris-Foulkes estimate   =   -4680.61937751 Ry
     estimated scf accuracy    <       0.05178457 Ry

     total magnetization       =     8.64 Bohr mag/cell
     absolute magnetization    =     9.84 Bohr mag/cell

     iteration # 47     ecut=   100.00 Ry     beta= 0.40
     Davidson diagonalization with overlap
     ethr =  1.80E-05,  avg # of iterations =  1.0

     total cpu time spent up to now is    19890.3 secs

     total energy              =   -4680.61612586 Ry
     Harris-Foulkes estimate   =   -4680.61776942 Ry
     estimated scf accuracy    <       0.03429411 Ry

     total magnetization       =     8.65 Bohr mag/cell
     absolute magnetization    =     9.86 Bohr mag/cell

     iteration # 48     ecut=   100.00 Ry     beta= 0.40
     Davidson diagonalization with overlap
     ethr =  1.19E-05,  avg # of iterations =  1.0

     total cpu time spent up to now is    20259.1 secs

     total energy              =   -4680.61311132 Ry
     Harris-Foulkes estimate   =   -4680.62066559 Ry
     estimated scf accuracy    <       0.09785187 Ry

     total magnetization       =     8.63 Bohr mag/cell
     absolute magnetization    =     9.83 Bohr mag/cell

     iteration # 49     ecut=   100.00 Ry     beta= 0.40
     Davidson diagonalization with overlap
     ethr =  1.19E-05,  avg # of iterations =  1.9

     total cpu time spent up to now is    20659.1 secs

     total energy              =   -4680.60899688 Ry
     Harris-Foulkes estimate   =   -4680.62457336 Ry
     estimated scf accuracy    <       0.29344447 Ry

     total magnetization       =     8.60 Bohr mag/cell
     absolute magnetization    =     9.82 Bohr mag/cell

     iteration # 50     ecut=   100.00 Ry     beta= 0.40
     Davidson diagonalization with overlap
     ethr =  1.19E-05,  avg # of iterations =  2.0

     total cpu time spent up to now is    21057.7 secs

     total energy              =   -4680.60969515 Ry
     Harris-Foulkes estimate   =   -4680.62363915 Ry
     estimated scf accuracy    <       0.26076770 Ry

     total magnetization       =     8.65 Bohr mag/cell
     absolute magnetization    =     9.85 Bohr mag/cell

     iteration # 51     ecut=   100.00 Ry     beta= 0.40
     Davidson diagonalization with overlap
     ethr =  1.19E-05,  avg # of iterations =  2.0

     total cpu time spent up to now is    21456.7 secs

     total energy              =   -4680.61150514 Ry
     Harris-Foulkes estimate   =   -4680.62205094 Ry
     estimated scf accuracy    <       0.16174567 Ry

     total magnetization       =     8.71 Bohr mag/cell
     absolute magnetization    =     9.92 Bohr mag/cell

     iteration # 52     ecut=   100.00 Ry     beta= 0.40
     Davidson diagonalization with overlap
     ethr =  1.19E-05,  avg # of iterations =  2.3

     total cpu time spent up to now is    21856.4 secs

     total energy              =   -4680.60938344 Ry
     Harris-Foulkes estimate   =   -4680.62441778 Ry
     estimated scf accuracy    <       0.41964758 Ry

     total magnetization       =     8.71 Bohr mag/cell
     absolute magnetization    =     9.90 Bohr mag/cell

     iteration # 53     ecut=   100.00 Ry     beta= 0.40
     Davidson diagonalization with overlap
     ethr =  1.19E-05,  avg # of iterations =  1.0

     total cpu time spent up to now is    22218.5 secs

     total energy              =   -4680.61433305 Ry
     Harris-Foulkes estimate   =   -4680.61981956 Ry
     estimated scf accuracy    <       0.08328673 Ry

     total magnetization       =     8.68 Bohr mag/cell
     absolute magnetization    =     9.87 Bohr mag/cell

     iteration # 54     ecut=   100.00 Ry     beta= 0.40
     Davidson diagonalization with overlap
     ethr =  1.19E-05,  avg # of iterations =  1.0

     total cpu time spent up to now is    22587.2 secs

     total energy              =   -4680.61417407 Ry
     Harris-Foulkes estimate   =   -4680.62018222 Ry
     estimated scf accuracy    <       0.14847237 Ry

     total magnetization       =     8.67 Bohr mag/cell
     absolute magnetization    =     9.88 Bohr mag/cell

     iteration # 55     ecut=   100.00 Ry     beta= 0.40
     Davidson diagonalization with overlap
     ethr =  1.19E-05,  avg # of iterations =  1.0

     total cpu time spent up to now is    22959.3 secs

     total energy              =   -4680.61525692 Ry
     Harris-Foulkes estimate   =   -4680.61925066 Ry
     estimated scf accuracy    <       0.05771490 Ry

     total magnetization       =     8.68 Bohr mag/cell
     absolute magnetization    =     9.86 Bohr mag/cell

     iteration # 56     ecut=   100.00 Ry     beta= 0.40
     Davidson diagonalization with overlap
     ethr =  1.19E-05,  avg # of iterations =  1.0

     total cpu time spent up to now is    23400.7 secs

     total energy              =   -4680.61542587 Ry
     Harris-Foulkes estimate   =   -4680.61801320 Ry
     estimated scf accuracy    <       0.01650676 Ry

     total magnetization       =     8.63 Bohr mag/cell
     absolute magnetization    =     9.81 Bohr mag/cell

     iteration # 57     ecut=   100.00 Ry     beta= 0.40
     Davidson diagonalization with overlap
     ethr =  5.73E-06,  avg # of iterations =  3.2

     total cpu time spent up to now is    23992.1 secs

     total energy              =   -4680.60391017 Ry
     Harris-Foulkes estimate   =   -4680.63179883 Ry
     estimated scf accuracy    <       0.73925791 Ry

     total magnetization       =     8.52 Bohr mag/cell
     absolute magnetization    =     9.72 Bohr mag/cell

     iteration # 58     ecut=   100.00 Ry     beta= 0.40
     Davidson diagonalization with overlap
     ethr =  5.73E-06,  avg # of iterations =  2.8

     total cpu time spent up to now is    24551.5 secs

     total energy              =   -4680.61508854 Ry
     Harris-Foulkes estimate   =   -4680.61919708 Ry
     estimated scf accuracy    <       0.05522740 Ry

     total magnetization       =     8.58 Bohr mag/cell
     absolute magnetization    =     9.75 Bohr mag/cell

     iteration # 59     ecut=   100.00 Ry     beta= 0.40
     Davidson diagonalization with overlap
     ethr =  5.73E-06,  avg # of iterations =  2.0

     total cpu time spent up to now is    25047.7 secs

     total energy              =   -4680.61211045 Ry
     Harris-Foulkes estimate   =   -4680.62212057 Ry
     estimated scf accuracy    <       0.18423664 Ry

     total magnetization       =     8.56 Bohr mag/cell
     absolute magnetization    =     9.74 Bohr mag/cell

     iteration # 60     ecut=   100.00 Ry     beta= 0.40
     Davidson diagonalization with overlap
     ethr =  5.73E-06,  avg # of iterations =  2.4

     total cpu time spent up to now is    25559.1 secs

     total energy              =   -4680.61222722 Ry
     Harris-Foulkes estimate   =   -4680.62185938 Ry
     estimated scf accuracy    <       0.18020912 Ry

     total magnetization       =     8.59 Bohr mag/cell
     absolute magnetization    =     9.76 Bohr mag/cell

     iteration # 61     ecut=   100.00 Ry     beta= 0.40
     Davidson diagonalization with overlap
     ethr =  5.73E-06,  avg # of iterations =  2.0

     total cpu time spent up to now is    26040.1 secs

     total energy              =   -4680.61374588 Ry
     Harris-Foulkes estimate   =   -4680.62050215 Ry
     estimated scf accuracy    <       0.10667668 Ry

     total magnetization       =     8.64 Bohr mag/cell
     absolute magnetization    =     9.82 Bohr mag/cell

     iteration # 62     ecut=   100.00 Ry     beta= 0.40
     Davidson diagonalization with overlap
     ethr =  5.73E-06,  avg # of iterations =  2.2

     total cpu time spent up to now is    26543.9 secs

     total energy              =   -4680.61198845 Ry
     Harris-Foulkes estimate   =   -4680.62227539 Ry
     estimated scf accuracy    <       0.27730852 Ry

     total magnetization       =     8.65 Bohr mag/cell
     absolute magnetization    =     9.81 Bohr mag/cell

     iteration # 63     ecut=   100.00 Ry     beta= 0.40
     Davidson diagonalization with overlap
     ethr =  5.73E-06,  avg # of iterations =  1.9

     total cpu time spent up to now is    27012.0 secs

     total energy              =   -4680.61518404 Ry
     Harris-Foulkes estimate   =   -4680.61929386 Ry
     estimated scf accuracy    <       0.05885584 Ry

     total magnetization       =     8.62 Bohr mag/cell
     absolute magnetization    =     9.79 Bohr mag/cell

     iteration # 64     ecut=   100.00 Ry     beta= 0.40
     Davidson diagonalization with overlap
     ethr =  5.73E-06,  avg # of iterations =  1.3

     total cpu time spent up to now is    27474.8 secs

     total energy              =   -4680.61395982 Ry
     Harris-Foulkes estimate   =   -4680.62044323 Ry
     estimated scf accuracy    <       0.16775547 Ry

     total magnetization       =     8.62 Bohr mag/cell
     absolute magnetization    =     9.80 Bohr mag/cell

     iteration # 65     ecut=   100.00 Ry     beta= 0.40
     Davidson diagonalization with overlap
     ethr =  5.73E-06,  avg # of iterations =  2.0

     total cpu time spent up to now is    27969.6 secs

     total energy              =   -4680.61298360 Ry
     Harris-Foulkes estimate   =   -4680.62055233 Ry
     estimated scf accuracy    <       0.09237442 Ry

     total magnetization       =     8.66 Bohr mag/cell
     absolute magnetization    =     9.82 Bohr mag/cell

     iteration # 66     ecut=   100.00 Ry     beta= 0.40
     Davidson diagonalization with overlap
     ethr =  5.73E-06,  avg # of iterations =  2.0

     total cpu time spent up to now is    28509.4 secs

     total energy              =   -4680.61149452 Ry
     Harris-Foulkes estimate   =   -4680.62420043 Ry
     estimated scf accuracy    <       0.17603694 Ry

     total magnetization       =     8.63 Bohr mag/cell
     absolute magnetization    =     9.78 Bohr mag/cell

     iteration # 67     ecut=   100.00 Ry     beta= 0.40
     Davidson diagonalization with overlap
     ethr =  5.73E-06,  avg # of iterations =  2.0

     total cpu time spent up to now is    29019.5 secs

     total energy              =   -4680.61656780 Ry
     Harris-Foulkes estimate   =   -4680.61780487 Ry
     estimated scf accuracy    <       0.01952385 Ry

     total magnetization       =     8.59 Bohr mag/cell
     absolute magnetization    =     9.74 Bohr mag/cell

     iteration # 68     ecut=   100.00 Ry     beta= 0.40
     Davidson diagonalization with overlap
     ethr =  5.73E-06,  avg # of iterations =  1.9

     total cpu time spent up to now is    29498.7 secs

     total energy              =   -4680.61365708 Ry
     Harris-Foulkes estimate   =   -4680.62075724 Ry
     estimated scf accuracy    <       0.09715023 Ry

     total magnetization       =     8.59 Bohr mag/cell
     absolute magnetization    =     9.73 Bohr mag/cell

     iteration # 69     ecut=   100.00 Ry     beta= 0.40
     Davidson diagonalization with overlap
     ethr =  5.73E-06,  avg # of iterations =  2.0

     total cpu time spent up to now is    29992.1 secs

     total energy              =   -4680.61129975 Ry
     Harris-Foulkes estimate   =   -4680.62319159 Ry
     estimated scf accuracy    <       0.24968956 Ry

     total magnetization       =     8.55 Bohr mag/cell
     absolute magnetization    =     9.71 Bohr mag/cell

     iteration # 70     ecut=   100.00 Ry     beta= 0.40
     Davidson diagonalization with overlap
     ethr =  5.73E-06,  avg # of iterations =  2.0

     total cpu time spent up to now is    30495.1 secs

     total energy              =   -4680.61160701 Ry
     Harris-Foulkes estimate   =   -4680.62272854 Ry
     estimated scf accuracy    <       0.24413414 Ry

     total magnetization       =     8.57 Bohr mag/cell
     absolute magnetization    =     9.72 Bohr mag/cell

     iteration # 71     ecut=   100.00 Ry     beta= 0.40
     Davidson diagonalization with overlap
     ethr =  5.73E-06,  avg # of iterations =  2.0

     total cpu time spent up to now is    31000.4 secs

     total energy              =   -4680.61393830 Ry
     Harris-Foulkes estimate   =   -4680.62056327 Ry
     estimated scf accuracy    <       0.10565121 Ry

     total magnetization       =     8.62 Bohr mag/cell
     absolute magnetization    =     9.78 Bohr mag/cell

     iteration # 72     ecut=   100.00 Ry     beta= 0.40
     Davidson diagonalization with overlap
     ethr =  5.73E-06,  avg # of iterations =  2.0

     total cpu time spent up to now is    31507.8 secs

     total energy              =   -4680.61201335 Ry
     Harris-Foulkes estimate   =   -4680.62239390 Ry
     estimated scf accuracy    <       0.28628045 Ry

     total magnetization       =     8.63 Bohr mag/cell
     absolute magnetization    =     9.76 Bohr mag/cell

     iteration # 73     ecut=   100.00 Ry     beta= 0.40
     Davidson diagonalization with overlap
     ethr =  5.73E-06,  avg # of iterations =  2.0

     total cpu time spent up to now is    32004.9 secs

     total energy              =   -4680.61431547 Ry
     Harris-Foulkes estimate   =   -4680.62035771 Ry
     estimated scf accuracy    <       0.10806917 Ry

     total magnetization       =     8.59 Bohr mag/cell
     absolute magnetization    =     9.74 Bohr mag/cell

     iteration # 74     ecut=   100.00 Ry     beta= 0.40
     Davidson diagonalization with overlap
     ethr =  5.73E-06,  avg # of iterations =  1.1

     total cpu time spent up to now is    32468.8 secs

     total energy              =   -4680.61497360 Ry
     Harris-Foulkes estimate   =   -4680.61983729 Ry
     estimated scf accuracy    <       0.12428979 Ry

     total magnetization       =     8.59 Bohr mag/cell
     absolute magnetization    =     9.75 Bohr mag/cell

     iteration # 75     ecut=   100.00 Ry     beta= 0.40
     Davidson diagonalization with overlap
     ethr =  5.73E-06,  avg # of iterations =  1.0

     total cpu time spent up to now is    32920.6 secs

     total energy              =   -4680.61643395 Ry
     Harris-Foulkes estimate   =   -4680.61852672 Ry
     estimated scf accuracy    <       0.02952716 Ry

     total magnetization       =     8.63 Bohr mag/cell
     absolute magnetization    =     9.77 Bohr mag/cell

     iteration # 76     ecut=   100.00 Ry     beta= 0.40
     Davidson diagonalization with overlap
     ethr =  5.73E-06,  avg # of iterations =  1.0

     total cpu time spent up to now is    33365.0 secs

     total energy              =   -4680.61687850 Ry
     Harris-Foulkes estimate   =   -4680.61756498 Ry
     estimated scf accuracy    <       0.00230640 Ry

     total magnetization       =     8.60 Bohr mag/cell
     absolute magnetization    =     9.74 Bohr mag/cell

     iteration # 77     ecut=   100.00 Ry     beta= 0.40
     Davidson diagonalization with overlap
     ethr =  8.01E-07,  avg # of iterations =  3.1

     total cpu time spent up to now is    33996.5 secs

     total energy              =   -4680.61466342 Ry
     Harris-Foulkes estimate   =   -4680.62051557 Ry
     estimated scf accuracy    <       0.08990920 Ry

     total magnetization       =     8.52 Bohr mag/cell
     absolute magnetization    =     9.66 Bohr mag/cell

     iteration # 78     ecut=   100.00 Ry     beta= 0.40
     Davidson diagonalization with overlap
     ethr =  8.01E-07,  avg # of iterations =  2.8

     total cpu time spent up to now is    34612.3 secs

     total energy              =   -4680.61720334 Ry
     Harris-Foulkes estimate   =   -4680.61771397 Ry
     estimated scf accuracy    <       0.00590433 Ry

     total magnetization       =     8.57 Bohr mag/cell
     absolute magnetization    =     9.70 Bohr mag/cell

     iteration # 79     ecut=   100.00 Ry     beta= 0.40
     Davidson diagonalization with overlap
     ethr =  8.01E-07,  avg # of iterations =  2.0

     total cpu time spent up to now is    35114.4 secs

     total energy              =   -4680.61655973 Ry
     Harris-Foulkes estimate   =   -4680.61839328 Ry
     estimated scf accuracy    <       0.04041809 Ry

     total magnetization       =     8.56 Bohr mag/cell
     absolute magnetization    =     9.70 Bohr mag/cell

     iteration # 80     ecut=   100.00 Ry     beta= 0.40
     Davidson diagonalization with overlap
     ethr =  8.01E-07,  avg # of iterations =  2.0

     total cpu time spent up to now is    35614.8 secs

     total energy              =   -4680.61691749 Ry
     Harris-Foulkes estimate   =   -4680.61802901 Ry
     estimated scf accuracy    <       0.02390110 Ry

     total magnetization       =     8.57 Bohr mag/cell
     absolute magnetization    =     9.71 Bohr mag/cell

     iteration # 81     ecut=   100.00 Ry     beta= 0.40
     Davidson diagonalization with overlap
     ethr =  8.01E-07,  avg # of iterations =  1.9

     total cpu time spent up to now is    36096.1 secs

     total energy              =   -4680.61721023 Ry
     Harris-Foulkes estimate   =   -4680.61776075 Ry
     estimated scf accuracy    <       0.00849190 Ry

     total magnetization       =     8.58 Bohr mag/cell
     absolute magnetization    =     9.72 Bohr mag/cell

     iteration # 82     ecut=   100.00 Ry     beta= 0.40
     Davidson diagonalization with overlap
     ethr =  8.01E-07,  avg # of iterations =  2.0

     total cpu time spent up to now is    36572.6 secs

     total energy              =   -4680.61704134 Ry
     Harris-Foulkes estimate   =   -4680.61795274 Ry
     estimated scf accuracy    <       0.02283875 Ry

     total magnetization       =     8.58 Bohr mag/cell
     absolute magnetization    =     9.71 Bohr mag/cell

     iteration # 83     ecut=   100.00 Ry     beta= 0.40
     Davidson diagonalization with overlap
     ethr =  8.01E-07,  avg # of iterations =  1.1

     total cpu time spent up to now is    37015.3 secs

     total energy              =   -4680.61746599 Ry
     Harris-Foulkes estimate   =   -4680.61753914 Ry
     estimated scf accuracy    <       0.00095664 Ry

     total magnetization       =     8.57 Bohr mag/cell
     absolute magnetization    =     9.71 Bohr mag/cell

     iteration # 84     ecut=   100.00 Ry     beta= 0.40
     Davidson diagonalization with overlap
     ethr =  3.32E-07,  avg # of iterations =  1.0

     total cpu time spent up to now is    37475.6 secs

     total energy              =   -4680.61733701 Ry
     Harris-Foulkes estimate   =   -4680.61766943 Ry
     estimated scf accuracy    <       0.00953964 Ry

     total magnetization       =     8.57 Bohr mag/cell
     absolute magnetization    =     9.71 Bohr mag/cell

     iteration # 85     ecut=   100.00 Ry     beta= 0.40
     Davidson diagonalization with overlap
     ethr =  3.32E-07,  avg # of iterations =  1.9

     total cpu time spent up to now is    37945.1 secs

     total energy              =   -4680.61729609 Ry
     Harris-Foulkes estimate   =   -4680.61762686 Ry
     estimated scf accuracy    <       0.00329721 Ry

     total magnetization       =     8.58 Bohr mag/cell
     absolute magnetization    =     9.72 Bohr mag/cell

     iteration # 86     ecut=   100.00 Ry     beta= 0.40
     Davidson diagonalization with overlap
     ethr =  3.32E-07,  avg # of iterations =  2.0

     total cpu time spent up to now is    38480.1 secs

     total energy              =   -4680.61677161 Ry
     Harris-Foulkes estimate   =   -4680.61828781 Ry
     estimated scf accuracy    <       0.03253389 Ry

     total magnetization       =     8.58 Bohr mag/cell
     absolute magnetization    =     9.72 Bohr mag/cell

     iteration # 87     ecut=   100.00 Ry     beta= 0.40
     Davidson diagonalization with overlap
     ethr =  3.32E-07,  avg # of iterations =  2.0

     total cpu time spent up to now is    39006.8 secs

     total energy              =   -4680.61748556 Ry
     Harris-Foulkes estimate   =   -4680.61752727 Ry
     estimated scf accuracy    <       0.00038512 Ry

     total magnetization       =     8.58 Bohr mag/cell
     absolute magnetization    =     9.71 Bohr mag/cell

     iteration # 88     ecut=   100.00 Ry     beta= 0.40
     Davidson diagonalization with overlap
     ethr =  1.34E-07,  avg # of iterations =  2.0

     total cpu time spent up to now is    39487.0 secs

     total energy              =   -4680.61740900 Ry
     Harris-Foulkes estimate   =   -4680.61759852 Ry
     estimated scf accuracy    <       0.00258940 Ry

     total magnetization       =     8.57 Bohr mag/cell
     absolute magnetization    =     9.70 Bohr mag/cell

     iteration # 89     ecut=   100.00 Ry     beta= 0.40
     Davidson diagonalization with overlap
     ethr =  1.34E-07,  avg # of iterations =  2.0

     total cpu time spent up to now is    39996.1 secs

     total energy              =   -4680.61726292 Ry
     Harris-Foulkes estimate   =   -4680.61774391 Ry
     estimated scf accuracy    <       0.01030562 Ry

     total magnetization       =     8.56 Bohr mag/cell
     absolute magnetization    =     9.69 Bohr mag/cell

     iteration # 90     ecut=   100.00 Ry     beta= 0.40
     Davidson diagonalization with overlap
     ethr =  1.34E-07,  avg # of iterations =  2.0

     total cpu time spent up to now is    40526.9 secs

     total energy              =   -4680.61735774 Ry
     Harris-Foulkes estimate   =   -4680.61766300 Ry
     estimated scf accuracy    <       0.00591879 Ry

     total magnetization       =     8.56 Bohr mag/cell
     absolute magnetization    =     9.69 Bohr mag/cell

     iteration # 91     ecut=   100.00 Ry     beta= 0.40
     Davidson diagonalization with overlap
     ethr =  1.34E-07,  avg # of iterations =  2.0

     total cpu time spent up to now is    41026.7 secs

     total energy              =   -4680.61746950 Ry
     Harris-Foulkes estimate   =   -4680.61755251 Ry
     estimated scf accuracy    <       0.00128848 Ry

     total magnetization       =     8.56 Bohr mag/cell
     absolute magnetization    =     9.69 Bohr mag/cell

     iteration # 92     ecut=   100.00 Ry     beta= 0.40
     Davidson diagonalization with overlap
     ethr =  1.34E-07,  avg # of iterations =  2.0

     total cpu time spent up to now is    41513.6 secs

     total energy              =   -4680.61737276 Ry
     Harris-Foulkes estimate   =   -4680.61764637 Ry
     estimated scf accuracy    <       0.00680599 Ry

     total magnetization       =     8.57 Bohr mag/cell
     absolute magnetization    =     9.70 Bohr mag/cell

     iteration # 93     ecut=   100.00 Ry     beta= 0.40
     Davidson diagonalization with overlap
     ethr =  1.34E-07,  avg # of iterations =  2.0

     total cpu time spent up to now is    42025.3 secs

     total energy              =   -4680.61744774 Ry
     Harris-Foulkes estimate   =   -4680.61759545 Ry
     estimated scf accuracy    <       0.00232727 Ry

     total magnetization       =     8.56 Bohr mag/cell
     absolute magnetization    =     9.69 Bohr mag/cell

     iteration # 94     ecut=   100.00 Ry     beta= 0.40
     Davidson diagonalization with overlap
     ethr =  1.34E-07,  avg # of iterations =  1.1

     total cpu time spent up to now is    42467.2 secs

     total energy              =   -4680.61747683 Ry
     Harris-Foulkes estimate   =   -4680.61755657 Ry
     estimated scf accuracy    <       0.00245805 Ry

     total magnetization       =     8.56 Bohr mag/cell
     absolute magnetization    =     9.69 Bohr mag/cell

     iteration # 95     ecut=   100.00 Ry     beta= 0.40
     Davidson diagonalization with overlap
     ethr =  1.34E-07,  avg # of iterations =  1.0

     total cpu time spent up to now is    42907.6 secs

     total energy              =   -4680.61749637 Ry
     Harris-Foulkes estimate   =   -4680.61754005 Ry
     estimated scf accuracy    <       0.00063981 Ry

     total magnetization       =     8.57 Bohr mag/cell
     absolute magnetization    =     9.70 Bohr mag/cell

     iteration # 96     ecut=   100.00 Ry     beta= 0.40
     Davidson diagonalization with overlap
     ethr =  1.34E-07,  avg # of iterations =  1.0

     total cpu time spent up to now is    43360.7 secs

     total energy              =   -4680.61751487 Ry
     Harris-Foulkes estimate   =   -4680.61751847 Ry
     estimated scf accuracy    <       0.00003975 Ry

     total magnetization       =     8.57 Bohr mag/cell
     absolute magnetization    =     9.69 Bohr mag/cell

     iteration # 97     ecut=   100.00 Ry     beta= 0.40
     Davidson diagonalization with overlap
     ethr =  1.38E-08,  avg # of iterations =  2.0

     total cpu time spent up to now is    43906.6 secs

     total energy              =   -4680.61749117 Ry
     Harris-Foulkes estimate   =   -4680.61754671 Ry
     estimated scf accuracy    <       0.00107959 Ry

     total magnetization       =     8.56 Bohr mag/cell
     absolute magnetization    =     9.68 Bohr mag/cell

     iteration # 98     ecut=   100.00 Ry     beta= 0.40
     Davidson diagonalization with overlap
     ethr =  1.38E-08,  avg # of iterations =  2.0

     total cpu time spent up to now is    44426.3 secs

     total energy              =   -4680.61751583 Ry
     Harris-Foulkes estimate   =   -4680.61752085 Ry
     estimated scf accuracy    <       0.00006257 Ry

     total magnetization       =     8.56 Bohr mag/cell
     absolute magnetization    =     9.68 Bohr mag/cell

     iteration # 99     ecut=   100.00 Ry     beta= 0.40
     Davidson diagonalization with overlap
     ethr =  1.38E-08,  avg # of iterations =  2.0

     total cpu time spent up to now is    44933.7 secs

     total energy              =   -4680.61749968 Ry
     Harris-Foulkes estimate   =   -4680.61753787 Ry
     estimated scf accuracy    <       0.00078628 Ry

     total magnetization       =     8.56 Bohr mag/cell
     absolute magnetization    =     9.68 Bohr mag/cell

     iteration #100     ecut=   100.00 Ry     beta= 0.40
     Davidson diagonalization with overlap
     ethr =  1.38E-08,  avg # of iterations =  2.0
 
     Magnetic moment per site:
     atom:    1    charge:    7.2642    magn:   -0.0299    constr:    0.0000
     atom:    2    charge:    7.3042    magn:   -0.0139    constr:    0.0000
     atom:    3    charge:    0.5139    magn:   -0.0114    constr:    0.0000
     atom:    4    charge:    0.4943    magn:   -0.0119    constr:    0.0000
     atom:    5    charge:    5.3388    magn:    0.0467    constr:    0.0000
     atom:    6    charge:    5.3511    magn:    0.0593    constr:    0.0000
     atom:    7    charge:    5.3868    magn:    0.0729    constr:    0.0000
     atom:    8    charge:    5.3952    magn:    0.0553    constr:    0.0000
     atom:    9    charge:    5.4218    magn:    0.0516    constr:    0.0000
     atom:   10    charge:    5.4419    magn:    0.0686    constr:    0.0000
     atom:   11    charge:    5.3864    magn:    0.0015    constr:    0.0000
     atom:   12    charge:   15.4979    magn:    0.7569    constr:    0.0000
     atom:   13    charge:   15.4774    magn:    0.8276    constr:    0.0000
     atom:   14    charge:   15.4975    magn:    0.6992    constr:    0.0000
     atom:   15    charge:   15.5745    magn:    0.6742    constr:    0.0000
     atom:   16    charge:   15.5043    magn:    0.8878    constr:    0.0000
     atom:   17    charge:   15.5293    magn:    0.7001    constr:    0.0000
     atom:   18    charge:   15.5133    magn:    0.8021    constr:    0.0000
     atom:   19    charge:   15.6575    magn:    0.3825    constr:    0.0000
     atom:   20    charge:   15.5858    magn:    0.5793    constr:    0.0000
     atom:   21    charge:   15.5526    magn:    0.5990    constr:    0.0000
     atom:   22    charge:   15.4830    magn:    0.8024    constr:    0.0000
     atom:   23    charge:   15.4756    magn:    0.8063    constr:    0.0000

     total cpu time spent up to now is    45422.7 secs

     total energy              =   -4680.61751718 Ry
     Harris-Foulkes estimate   =   -4680.61752163 Ry
     estimated scf accuracy    <       0.00006114 Ry

     total magnetization       =     8.56 Bohr mag/cell
     absolute magnetization    =     9.68 Bohr mag/cell

     iteration #101     ecut=   100.00 Ry     beta= 0.40
     Davidson diagonalization with overlap
     ethr =  1.38E-08,  avg # of iterations =  1.1

     total cpu time spent up to now is    45857.4 secs

     total energy              =   -4680.61751428 Ry
     Harris-Foulkes estimate   =   -4680.61752469 Ry
     estimated scf accuracy    <       0.00015307 Ry

     total magnetization       =     8.56 Bohr mag/cell
     absolute magnetization    =     9.69 Bohr mag/cell

     iteration #102     ecut=   100.00 Ry     beta= 0.40
     Davidson diagonalization with overlap
     ethr =  1.38E-08,  avg # of iterations =  1.1

     total cpu time spent up to now is    46303.0 secs

     total energy              =   -4680.61751544 Ry
     Harris-Foulkes estimate   =   -4680.61752199 Ry
     estimated scf accuracy    <       0.00010558 Ry

     total magnetization       =     8.56 Bohr mag/cell
     absolute magnetization    =     9.69 Bohr mag/cell

     iteration #103     ecut=   100.00 Ry     beta= 0.40
     Davidson diagonalization with overlap
     ethr =  1.38E-08,  avg # of iterations =  2.0

     total cpu time spent up to now is    46815.3 secs

     total energy              =   -4680.61750252 Ry
     Harris-Foulkes estimate   =   -4680.61753561 Ry
     estimated scf accuracy    <       0.00047453 Ry

     total magnetization       =     8.56 Bohr mag/cell
     absolute magnetization    =     9.69 Bohr mag/cell

     iteration #104     ecut=   100.00 Ry     beta= 0.40
     Davidson diagonalization with overlap
     ethr =  1.38E-08,  avg # of iterations =  2.0

     total cpu time spent up to now is    47338.1 secs

     total energy              =   -4680.61751569 Ry
     Harris-Foulkes estimate   =   -4680.61752431 Ry
     estimated scf accuracy    <       0.00019268 Ry

     total magnetization       =     8.56 Bohr mag/cell
     absolute magnetization    =     9.68 Bohr mag/cell

     iteration #105     ecut=   100.00 Ry     beta= 0.40
     Davidson diagonalization with overlap
     ethr =  1.38E-08,  avg # of iterations =  1.0

     total cpu time spent up to now is    47771.5 secs

     total energy              =   -4680.61751967 Ry
     Harris-Foulkes estimate   =   -4680.61752145 Ry
     estimated scf accuracy    <       0.00006249 Ry

     total magnetization       =     8.56 Bohr mag/cell
     absolute magnetization    =     9.68 Bohr mag/cell

     iteration #106     ecut=   100.00 Ry     beta= 0.40
     Davidson diagonalization with overlap
     ethr =  1.38E-08,  avg # of iterations =  1.0

     total cpu time spent up to now is    48215.6 secs

     total energy              =   -4680.61752027 Ry
     Harris-Foulkes estimate   =   -4680.61752072 Ry
     estimated scf accuracy    <       0.00001008 Ry

     total magnetization       =     8.56 Bohr mag/cell
     absolute magnetization    =     9.68 Bohr mag/cell

     iteration #107     ecut=   100.00 Ry     beta= 0.40
     Davidson diagonalization with overlap
     ethr =  3.50E-09,  avg # of iterations =  1.2

     total cpu time spent up to now is    48678.7 secs

     total energy              =   -4680.61751861 Ry
     Harris-Foulkes estimate   =   -4680.61752261 Ry
     estimated scf accuracy    <       0.00006868 Ry

     total magnetization       =     8.56 Bohr mag/cell
     absolute magnetization    =     9.68 Bohr mag/cell

     iteration #108     ecut=   100.00 Ry     beta= 0.40
     Davidson diagonalization with overlap
     ethr =  3.50E-09,  avg # of iterations =  1.2

     total cpu time spent up to now is    49125.2 secs

     total energy              =   -4680.61752058 Ry
     Harris-Foulkes estimate   =   -4680.61752094 Ry
     estimated scf accuracy    <       0.00000815 Ry

     total magnetization       =     8.56 Bohr mag/cell
     absolute magnetization    =     9.68 Bohr mag/cell

     iteration #109     ecut=   100.00 Ry     beta= 0.40
     Davidson diagonalization with overlap
     ethr =  2.83E-09,  avg # of iterations =  2.0

     total cpu time spent up to now is    49620.6 secs

     total energy              =   -4680.61751762 Ry
     Harris-Foulkes estimate   =   -4680.61752381 Ry
     estimated scf accuracy    <       0.00011211 Ry

     total magnetization       =     8.56 Bohr mag/cell
     absolute magnetization    =     9.68 Bohr mag/cell

     iteration #110     ecut=   100.00 Ry     beta= 0.40
     Davidson diagonalization with overlap
     ethr =  2.83E-09,  avg # of iterations =  2.0

     total cpu time spent up to now is    50118.9 secs

     total energy              =   -4680.61752023 Ry
     Harris-Foulkes estimate   =   -4680.61752173 Ry
     estimated scf accuracy    <       0.00002892 Ry

     total magnetization       =     8.56 Bohr mag/cell
     absolute magnetization    =     9.68 Bohr mag/cell

     iteration #111     ecut=   100.00 Ry     beta= 0.40
     Davidson diagonalization with overlap
     ethr =  2.83E-09,  avg # of iterations =  1.0

     total cpu time spent up to now is    50560.6 secs

     total energy              =   -4680.61752063 Ry
     Harris-Foulkes estimate   =   -4680.61752147 Ry
     estimated scf accuracy    <       0.00001558 Ry

     total magnetization       =     8.56 Bohr mag/cell
     absolute magnetization    =     9.68 Bohr mag/cell

     iteration #112     ecut=   100.00 Ry     beta= 0.40
     Davidson diagonalization with overlap
     ethr =  2.83E-09,  avg # of iterations =  1.0

     total cpu time spent up to now is    51008.7 secs

     total energy              =   -4680.61752004 Ry
     Harris-Foulkes estimate   =   -4680.61752171 Ry
     estimated scf accuracy    <       0.00002622 Ry

     total magnetization       =     8.55 Bohr mag/cell
     absolute magnetization    =     9.68 Bohr mag/cell

     iteration #113     ecut=   100.00 Ry     beta= 0.40
     Davidson diagonalization with overlap
     ethr =  2.83E-09,  avg # of iterations =  2.0

     total cpu time spent up to now is    51525.1 secs

     total energy              =   -4680.61751718 Ry
     Harris-Foulkes estimate   =   -4680.61752516 Ry
     estimated scf accuracy    <       0.00014323 Ry

     total magnetization       =     8.56 Bohr mag/cell
     absolute magnetization    =     9.68 Bohr mag/cell

     iteration #114     ecut=   100.00 Ry     beta= 0.40
     Davidson diagonalization with overlap
     ethr =  2.83E-09,  avg # of iterations =  2.0

     total cpu time spent up to now is    52044.2 secs

     total energy              =   -4680.61752065 Ry
     Harris-Foulkes estimate   =   -4680.61752146 Ry
     estimated scf accuracy    <       0.00000921 Ry

     total magnetization       =     8.55 Bohr mag/cell
     absolute magnetization    =     9.67 Bohr mag/cell

     iteration #115     ecut=   100.00 Ry     beta= 0.40
     Davidson diagonalization with overlap
     ethr =  2.83E-09,  avg # of iterations =  2.0

     total cpu time spent up to now is    52503.4 secs

     total energy              =   -4680.61751562 Ry
     Harris-Foulkes estimate   =   -4680.61752652 Ry
     estimated scf accuracy    <       0.00034647 Ry

     total magnetization       =     8.55 Bohr mag/cell
     absolute magnetization    =     9.67 Bohr mag/cell

     iteration #116     ecut=   100.00 Ry     beta= 0.40
     Davidson diagonalization with overlap
     ethr =  2.83E-09,  avg # of iterations =  1.9

     total cpu time spent up to now is    52948.6 secs

     total energy              =   -4680.61752094 Ry
     Harris-Foulkes estimate   =   -4680.61752147 Ry
     estimated scf accuracy    <       0.00000793 Ry

     total magnetization       =     8.55 Bohr mag/cell
     absolute magnetization    =     9.67 Bohr mag/cell

     iteration #117     ecut=   100.00 Ry     beta= 0.40
     Davidson diagonalization with overlap
     ethr =  2.75E-09,  avg # of iterations =  1.0

     total cpu time spent up to now is    53350.2 secs

     total energy              =   -4680.61752036 Ry
     Harris-Foulkes estimate   =   -4680.61752226 Ry
     estimated scf accuracy    <       0.00003166 Ry

     total magnetization       =     8.55 Bohr mag/cell
     absolute magnetization    =     9.67 Bohr mag/cell

     iteration #118     ecut=   100.00 Ry     beta= 0.40
     Davidson diagonalization with overlap
     ethr =  2.75E-09,  avg # of iterations =  1.0

     total cpu time spent up to now is    53756.7 secs

     total energy              =   -4680.61752085 Ry
     Harris-Foulkes estimate   =   -4680.61752146 Ry
     estimated scf accuracy    <       0.00000650 Ry

     total magnetization       =     8.55 Bohr mag/cell
     absolute magnetization    =     9.67 Bohr mag/cell

     iteration #119     ecut=   100.00 Ry     beta= 0.40
     Davidson diagonalization with overlap
     ethr =  2.26E-09,  avg # of iterations =  2.0

     total cpu time spent up to now is    54205.5 secs

     total energy              =   -4680.61751922 Ry
     Harris-Foulkes estimate   =   -4680.61752334 Ry
     estimated scf accuracy    <       0.00007017 Ry

     total magnetization       =     8.55 Bohr mag/cell
     absolute magnetization    =     9.67 Bohr mag/cell

     iteration #120     ecut=   100.00 Ry     beta= 0.40
     Davidson diagonalization with overlap
     ethr =  2.26E-09,  avg # of iterations =  1.9

     total cpu time spent up to now is    54655.9 secs

     total energy              =   -4680.61752097 Ry
     Harris-Foulkes estimate   =   -4680.61752170 Ry
     estimated scf accuracy    <       0.00001355 Ry

     total magnetization       =     8.55 Bohr mag/cell
     absolute magnetization    =     9.67 Bohr mag/cell

     iteration #121     ecut=   100.00 Ry     beta= 0.40
     Davidson diagonalization with overlap
     ethr =  2.26E-09,  avg # of iterations =  1.0

     total cpu time spent up to now is    55059.4 secs

     total energy              =   -4680.61752128 Ry
     Harris-Foulkes estimate   =   -4680.61752148 Ry
     estimated scf accuracy    <       0.00000358 Ry

     total magnetization       =     8.55 Bohr mag/cell
     absolute magnetization    =     9.67 Bohr mag/cell

     iteration #122     ecut=   100.00 Ry     beta= 0.40
     Davidson diagonalization with overlap
     ethr =  1.24E-09,  avg # of iterations =  1.0

     total cpu time spent up to now is    55465.4 secs

     total energy              =   -4680.61752121 Ry
     Harris-Foulkes estimate   =   -4680.61752148 Ry
     estimated scf accuracy    <       0.00000313 Ry

     total magnetization       =     8.55 Bohr mag/cell
     absolute magnetization    =     9.67 Bohr mag/cell

     iteration #123     ecut=   100.00 Ry     beta= 0.40
     Davidson diagonalization with overlap
     ethr =  1.09E-09,  avg # of iterations =  1.1

     total cpu time spent up to now is    55875.4 secs

     total energy              =   -4680.61752073 Ry
     Harris-Foulkes estimate   =   -4680.61752207 Ry
     estimated scf accuracy    <       0.00002639 Ry

     total magnetization       =     8.55 Bohr mag/cell
     absolute magnetization    =     9.67 Bohr mag/cell

     iteration #124     ecut=   100.00 Ry     beta= 0.40
     Davidson diagonalization with overlap
     ethr =  1.09E-09,  avg # of iterations =  1.0
 
     Magnetic moment per site:
     atom:    1    charge:    7.2642    magn:   -0.0296    constr:    0.0000
     atom:    2    charge:    7.3041    magn:   -0.0137    constr:    0.0000
     atom:    3    charge:    0.5139    magn:   -0.0112    constr:    0.0000
     atom:    4    charge:    0.4943    magn:   -0.0118    constr:    0.0000
     atom:    5    charge:    5.3387    magn:    0.0466    constr:    0.0000
     atom:    6    charge:    5.3511    magn:    0.0593    constr:    0.0000
     atom:    7    charge:    5.3868    magn:    0.0729    constr:    0.0000
     atom:    8    charge:    5.3952    magn:    0.0552    constr:    0.0000
     atom:    9    charge:    5.4217    magn:    0.0511    constr:    0.0000
     atom:   10    charge:    5.4419    magn:    0.0683    constr:    0.0000
     atom:   11    charge:    5.3864    magn:    0.0016    constr:    0.0000
     atom:   12    charge:   15.4980    magn:    0.7526    constr:    0.0000
     atom:   13    charge:   15.4775    magn:    0.8272    constr:    0.0000
     atom:   14    charge:   15.4978    magn:    0.6940    constr:    0.0000
     atom:   15    charge:   15.5742    magn:    0.6725    constr:    0.0000
     atom:   16    charge:   15.5046    magn:    0.8868    constr:    0.0000
     atom:   17    charge:   15.5296    magn:    0.6993    constr:    0.0000
     atom:   18    charge:   15.5137    magn:    0.7990    constr:    0.0000
     atom:   19    charge:   15.6577    magn:    0.3805    constr:    0.0000
     atom:   20    charge:   15.5857    magn:    0.5780    constr:    0.0000
     atom:   21    charge:   15.5527    magn:    0.5977    constr:    0.0000
     atom:   22    charge:   15.4825    magn:    0.8013    constr:    0.0000
     atom:   23    charge:   15.4758    magn:    0.8031    constr:    0.0000

     total cpu time spent up to now is    56276.9 secs

     End of self-consistent calculation

 ------ SPIN UP ------------


          k = 0.0000 0.0000 0.0000 ( 30953 PWs)   bands (ev):

   -90.7697 -90.7314 -90.6873 -90.6517 -90.6485 -90.5663 -90.5599 -90.5295
   -90.4964 -90.4932 -90.4587 -90.4320 -51.4581 -51.3939 -51.3759 -51.3165
   -51.3020 -51.2947 -51.2558 -51.2475 -51.2384 -51.2228 -51.2085 -51.2010
   -51.1864 -51.1813 -51.1672 -51.1520 -51.1451 -51.1320 -51.1276 -51.1161
   -51.1107 -51.0910 -51.0797 -51.0606 -51.0587 -51.0515 -51.0315 -51.0130
   -50.9696 -50.9408 -50.9348 -50.9159 -50.9132 -50.9053 -50.8670 -50.8530
   -36.2692 -35.6515 -14.5507 -14.4695 -14.2278 -14.1424 -13.9143 -13.5868
    -5.8932  -5.4263  -5.2150  -4.8523  -4.5814  -4.3925  -3.9440   4.9020
     5.9066   6.1286   6.2761   6.7593   7.0817   7.3662   7.5715   7.8187
     7.8342   8.0168   8.1470   8.2025   8.3345   8.3654   8.4042   8.5932
     8.6799   8.7293   8.7647   8.8580   8.9521   8.9539   9.0476   9.1090
     9.1156   9.1354   9.1676   9.2467   9.3012   9.3077   9.3990   9.4986
     9.5282   9.6410   9.7087   9.7677   9.7887   9.7944   9.8676  10.0375
    10.1253  10.3276  10.3477  10.3907  10.5324  10.5706  10.5737  10.6887
    10.7156  10.7645  10.8676  10.8914  10.9347  11.0319  11.0390  11.1270
    11.1438  11.2008  11.3137  11.3228  11.3845  11.4090  11.4958  11.5265
    11.5387  11.6166  11.6548  11.7215  11.7583  11.7969  11.8131  11.8381
    11.8482  11.9025  11.9225  11.9696  11.9855  12.0118  12.0394  12.1369
    12.2493  12.3577  12.4101  12.8132  13.3097  13.8279  13.9300  14.1676
    14.7305  14.8333  15.0509  15.4036  15.6813  15.8974  16.3602  16.7717
    17.0310  17.6044  17.6330  17.9790  18.2930  18.7778  18.9510  19.7306
    19.7603  19.8815  19.9835  20.2474  20.4422

     occupation numbers 
     1.0000   1.0000   1.0000   1.0000   1.0000   1.0000   1.0000   1.0000
     1.0000   1.0000   1.0000   1.0000   1.0000   1.0000   1.0000   1.0000
     1.0000   1.0000   1.0000   1.0000   1.0000   1.0000   1.0000   1.0000
     1.0000   1.0000   1.0000   1.0000   1.0000   1.0000   1.0000   1.0000
     1.0000   1.0000   1.0000   1.0000   1.0000   1.0000   1.0000   1.0000
     1.0000   1.0000   1.0000   1.0000   1.0000   1.0000   1.0000   1.0000
     1.0000   1.0000   1.0000   1.0000   1.0000   1.0000   1.0000   1.0000
     1.0000   1.0000   1.0000   1.0000   1.0000   1.0000   1.0000   1.0000
     1.0000   1.0000   1.0000   1.0000   1.0000   1.0000   1.0000   1.0000
     1.0000   1.0000   1.0000   1.0000   1.0000   1.0000   1.0000   1.0000
     1.0000   1.0000   1.0000   1.0000   1.0000   1.0000   1.0000   1.0000
     1.0000   1.0000   1.0000   1.0000   1.0000   1.0000   1.0000   1.0000
     1.0000   1.0000   1.0000   1.0000   1.0000   1.0000   1.0000   1.0000
     1.0000   1.0000   1.0000   1.0000   1.0000   1.0000   1.0000   1.0000
     1.0000   1.0000   1.0000   1.0000   1.0000   1.0000   1.0000   1.0000
     1.0000   1.0000   1.0000   1.0000   1.0000   1.0000   1.0000   1.0000
     1.0000   1.0000   1.0000   1.0000   1.0000   1.0000   1.0000   1.0000
     1.0000   1.0000   1.0000   1.0000   1.0000   1.0001   1.0002   1.0017
     1.0140   1.0534   1.0761   0.1713   0.0000   0.0000   0.0000   0.0000
     0.0000   0.0000   0.0000   0.0000   0.0000   0.0000   0.0000   0.0000
[...]
     0.0000   0.0000   0.0000   0.0000   0.0000   0.0000   0.0000   0.0000
     0.0000   0.0000   0.0000   0.0000   0.0000   0.0000   0.0000   0.0000
     0.0000   0.0000   0.0000   0.0000   0.0000

     the Fermi energy is    12.7311 ev

!    total energy              =   -4680.61752119 Ry
     Harris-Foulkes estimate   =   -4680.61752142 Ry
     estimated scf accuracy    <       0.00000046 Ry

     The total energy is the sum of the following terms:

     one-electron contribution =   -4191.24352640 Ry
     hartree contribution      =    2245.60940365 Ry
     xc contribution           =    -514.09416946 Ry
     ewald contribution        =   -2089.77122152 Ry
     one-center paw contrib.   =    -131.11986953 Ry
      -> PAW hartree energy AE =       1.24224805 Ry
      -> PAW hartree energy PS =      -1.23952941 Ry
      -> PAW xc energy AE      =     -35.48169605 Ry
      -> PAW xc energy PS      =       1.82074149 Ry
      -> total E_H with PAW    =    2245.61212230 Ry
      -> total E_XC with PAW   =    -547.75512401 Ry
     smearing contrib. (-TS)   =       0.00186205 Ry

     total magnetization       =     8.55 Bohr mag/cell
     absolute magnetization    =     9.67 Bohr mag/cell

     convergence has been achieved in 124 iterations

     Forces acting on atoms (cartesian axes, Ry/au):

     atom    1 type  4   force =     0.08843549   -0.00253306    0.13581028
     atom    2 type  4   force =    -0.02852011   -0.00682572    0.26588057
     atom    3 type  1   force =     0.05050830   -0.00001117   -0.22094169
     atom    4 type  1   force =    -0.10191992    0.00203318   -0.11329422
     atom    5 type  3   force =    -0.02887699   -0.00023938    0.04416988
     atom    6 type  3   force =     0.11930294   -0.00280009    0.05000256
     atom    7 type  3   force =    -0.04722498    0.00011187    0.05085763
     atom    8 type  3   force =    -0.03134980   -0.00029409   -0.03241780
     atom    9 type  3   force =     0.03342301    0.00135025   -0.02418280
     atom   10 type  3   force =    -0.01142945    0.00161053   -0.03349465
     atom   11 type  3   force =    -0.02409628   -0.00067098    0.07428693
     atom   12 type  2   force =     0.04609656   -0.02189329   -0.05984775
     atom   13 type  2   force =    -0.00566257   -0.01119528   -0.04106042
     atom   14 type  2   force =    -0.00433675   -0.01161836   -0.04159817
     atom   15 type  2   force =    -0.02703453    0.01399887    0.14917355
     atom   16 type  2   force =     0.00017569    0.01314956    0.01470925
     atom   17 type  2   force =    -0.02790498    0.02000582    0.00901510
     atom   18 type  2   force =     0.01049300   -0.01106913   -0.02340137
     atom   19 type  2   force =     0.02630151   -0.00852017   -0.21858794
     atom   20 type  2   force =    -0.06978065   -0.01883800   -0.07288949
     atom   21 type  2   force =     0.05559879    0.02191310    0.01259143
     atom   22 type  2   force =    -0.00427904    0.01069486    0.02172662
     atom   23 type  2   force =    -0.01791925    0.01164066    0.05349250
     The non-local contrib.  to forces
     atom    1 type  4   force =     0.01348078    0.00103913    0.00593876
     atom    2 type  4   force =     0.01624303    0.00319070   -0.12080425
     atom    3 type  1   force =     0.05616936    0.00113249   -0.24569001
     atom    4 type  1   force =    -0.07927959    0.00376987   -0.16447862
     atom    5 type  3   force =    -0.24009380    0.00086943    0.11285170
     atom    6 type  3   force =     0.63308310    0.00251860    0.20242724
     atom    7 type  3   force =    -0.20420376    0.01930462    0.37872734
     atom    8 type  3   force =    -0.50477937   -0.00949809   -0.22972652
     atom    9 type  3   force =    -0.12240574    0.00067476   -0.20733547
     atom   10 type  3   force =     0.24276685    0.00626379   -0.40759897
     atom   11 type  3   force =     0.31379363   -0.01154779    0.33829224
     atom   12 type  2   force =    -0.05419110    0.00134954   -0.12519811
     atom   13 type  2   force =     0.01363432   -0.00392447    0.10608444
     atom   14 type  2   force =     0.00687430   -0.00988246   -0.09548925
     atom   15 type  2   force =     0.09626166    0.02234066   -0.90463932
     atom   16 type  2   force =    -0.00160888    0.01385892   -0.47526123
     atom   17 type  2   force =    -0.05128782    0.01401405   -0.34842491
     atom   18 type  2   force =    -0.04345521   -0.02061149    0.49476326
     atom   19 type  2   force =    -0.16579828   -0.05856629    1.73077496
     atom   20 type  2   force =     0.13988959   -0.02070018    0.85867713
     atom   21 type  2   force =    -0.10736003    0.01187204    0.35651814
     atom   22 type  2   force =    -0.04919097    0.01635886   -0.06764086
     atom   23 type  2   force =     0.16222625    0.01198385    0.04930832
     The ionic contribution  to forces
     atom    1 type  4   force =    -3.44391522   -0.43028252   49.01451698
     atom    2 type  4   force =     0.21418810   -0.61312190   44.65965599
     atom    3 type  1   force =     0.37661515    0.09716448   -9.14239827
     atom    4 type  1   force =     1.32544337    0.13117029   -8.36636281
     atom    5 type  3   force =     0.61184916   -0.22488413  -15.44667628
     atom    6 type  3   force =     3.70415054   -0.25303789  -15.62645876
     atom    7 type  3   force =    -1.25263192   -0.32162683  -17.12030117
     atom    8 type  3   force =     6.18432471    0.24345376   22.50102168
     atom    9 type  3   force =     5.86288197    0.21473340   22.68018334
     atom   10 type  3   force =    -5.11870640    0.17029832   23.35162593
     atom   11 type  3   force =    -7.07911212    0.27987877   25.25814825
     atom   12 type  2   force =     2.05800972   -4.03066803  -81.95095751
     atom   13 type  2   force =     1.39948487   -3.33843148  -65.95554398
     atom   14 type  2   force =     1.44387065   -3.51955602  -73.12052968
     atom   15 type  2   force =     2.13743898    3.61802105  -71.06548562
     atom   16 type  2   force =     1.77389308    3.60806224  -73.92731087
     atom   17 type  2   force =    -9.77422710    4.19499984  -86.22341553
     atom   18 type  2   force =     8.61019275   -3.73892414   60.99979316
     atom   19 type  2   force =     5.00575160   -3.29788676   43.93402458
     atom   20 type  2   force =   -18.46559137   -4.21038596   59.48907709
     atom   21 type  2   force =     7.89217026    4.19502558   54.80412076
     atom   22 type  2   force =    -3.69237773    3.60801666   52.97964310
     atom   23 type  2   force =     0.22629695    3.61798127   58.27362962
     The local contribution  to forces
     atom    1 type  4   force =     3.52209465    0.42683465  -48.88744189
     atom    2 type  4   force =    -0.25720070    0.60334869  -44.27800715
     atom    3 type  1   force =    -0.37510892   -0.09810922    9.13854731
     atom    4 type  1   force =    -1.35406249   -0.13237737    8.40096568
     atom    5 type  3   force =    -0.40375640    0.22377019   15.38052622
     atom    6 type  3   force =    -4.21060807    0.24774221   15.47770155
     atom    7 type  3   force =     1.40776534    0.30264367   16.79762425
     atom    8 type  3   force =    -5.71525914   -0.23435306  -22.30715080
     atom    9 type  3   force =    -5.70693909   -0.21404578  -22.50000347
     atom   10 type  3   force =     4.86600265   -0.17487237  -22.98215315
     atom   11 type  3   force =     6.74312457   -0.26912523  -25.51880947
     atom   12 type  2   force =    -1.96089783    4.00793459   82.01874841
     atom   13 type  2   force =    -1.41717604    3.33165700   65.81301786
     atom   14 type  2   force =    -1.45411574    3.51829403   73.17806581
     atom   15 type  2   force =    -2.25731622   -3.62651459   72.10720136
     atom   16 type  2   force =    -1.77074101   -3.60899572   74.41726196
     atom   17 type  2   force =     9.79470537   -4.18896108   86.57476872
     atom   18 type  2   force =    -8.55788871    3.74831469  -61.51588114
     atom   19 type  2   force =    -4.81444191    3.34729791  -45.86717850
     atom   20 type  2   force =    18.25874575    4.21194184  -60.41275074
     atom   21 type  2   force =    -7.73226653   -4.18503852  -55.14813831
     atom   22 type  2   force =     3.73738386   -3.61382856  -52.89452455
     atom   23 type  2   force =    -0.40506181   -3.61858936  -58.27407535
     The core correction contribution to forces
     atom    1 type  4   force =    -0.00365864   -0.00012204    0.00269584
     atom    2 type  4   force =    -0.00113997   -0.00023810    0.00494715
     atom    3 type  1   force =    -0.00713273   -0.00019698    0.02858379
     atom    4 type  1   force =     0.00596493   -0.00052797    0.01668431
     atom    5 type  3   force =     0.00293930    0.00000772   -0.00256073
     atom    6 type  3   force =    -0.00716530   -0.00001944   -0.00343325
     atom    7 type  3   force =     0.00209723   -0.00020597   -0.00508346
     atom    8 type  3   force =     0.00419329    0.00010394    0.00340522
     atom    9 type  3   force =     0.00009542   -0.00001092    0.00283813
     atom   10 type  3   force =    -0.00130424   -0.00007812    0.00478851
     atom   11 type  3   force =    -0.00209650    0.00012573   -0.00341318
     atom   12 type  2   force =     0.00197701   -0.00051299   -0.00226581
     atom   13 type  2   force =    -0.00044256   -0.00051637   -0.00479622
     atom   14 type  2   force =    -0.00097196   -0.00044397   -0.00326006
     atom   15 type  2   force =    -0.00382303    0.00013918    0.01210095
     atom   16 type  2   force =    -0.00016122    0.00020508    0.00013187
     atom   17 type  2   force =     0.00201562   -0.00006195    0.00636313
     atom   18 type  2   force =     0.00108439    0.00012629   -0.00185743
     atom   19 type  2   force =     0.00213902    0.00064495   -0.01679055
     atom   20 type  2   force =    -0.00365442    0.00033038   -0.00836119
     atom   21 type  2   force =     0.00212426    0.00004435    0.00000543
     atom   22 type  2   force =     0.00075235    0.00012968    0.00412531
     atom   23 type  2   force =    -0.00135040    0.00025004    0.00407571
     The Hubbard contrib.    to forces
     atom    1 type  4   force =     0.00000000    0.00000000    0.00000000
     atom    2 type  4   force =     0.00000000    0.00000000    0.00000000
     atom    3 type  1   force =     0.00000000    0.00000000    0.00000000
     atom    4 type  1   force =     0.00000000    0.00000000    0.00000000
     atom    5 type  3   force =     0.00000000    0.00000000    0.00000000
     atom    6 type  3   force =     0.00000000    0.00000000    0.00000000
     atom    7 type  3   force =     0.00000000    0.00000000    0.00000000
     atom    8 type  3   force =     0.00000000    0.00000000    0.00000000
     atom    9 type  3   force =     0.00000000    0.00000000    0.00000000
     atom   10 type  3   force =     0.00000000    0.00000000    0.00000000
     atom   11 type  3   force =     0.00000000    0.00000000    0.00000000
     atom   12 type  2   force =     0.00000000    0.00000000    0.00000000
     atom   13 type  2   force =     0.00000000    0.00000000    0.00000000
     atom   14 type  2   force =     0.00000000    0.00000000    0.00000000
     atom   15 type  2   force =     0.00000000    0.00000000    0.00000000
     atom   16 type  2   force =     0.00000000    0.00000000    0.00000000
     atom   17 type  2   force =     0.00000000    0.00000000    0.00000000
     atom   18 type  2   force =     0.00000000    0.00000000    0.00000000
     atom   19 type  2   force =     0.00000000    0.00000000    0.00000000
     atom   20 type  2   force =     0.00000000    0.00000000    0.00000000
     atom   21 type  2   force =     0.00000000    0.00000000    0.00000000
     atom   22 type  2   force =     0.00000000    0.00000000    0.00000000
     atom   23 type  2   force =     0.00000000    0.00000000    0.00000000
     The SCF correction term to forces
     atom    1 type  4   force =     0.00043861   -0.00000009    0.00011209
     atom    2 type  4   force =    -0.00060588   -0.00000291    0.00010033
     atom    3 type  1   force =    -0.00002987    0.00000027    0.00002699
     atom    4 type  1   force =     0.00001854    0.00000056   -0.00009129
     atom    5 type  3   force =     0.00018945   -0.00000039    0.00004049
     atom    6 type  3   force =    -0.00015264   -0.00000138   -0.00022272
     atom    7 type  3   force =    -0.00024718   -0.00000141   -0.00009782
     atom    8 type  3   force =     0.00017540    0.00000155    0.00004412
     atom    9 type  3   force =    -0.00020486    0.00000099    0.00014617
     atom   10 type  3   force =    -0.00018362    0.00000111   -0.00014545
     atom   11 type  3   force =     0.00019883   -0.00000026    0.00008060
     atom   12 type  2   force =     0.00120344    0.00000580   -0.00016323
     atom   13 type  2   force =    -0.00115848    0.00002224    0.00018899
     atom   14 type  2   force =     0.00001069   -0.00002774   -0.00037348
     atom   15 type  2   force =     0.00040878    0.00001476    0.00000768
     atom   16 type  2   force =    -0.00120158    0.00002124   -0.00010098
     atom   17 type  2   force =     0.00089365    0.00001716   -0.00026481
     atom   18 type  2   force =     0.00056448    0.00002771   -0.00020772
     atom   19 type  2   force =    -0.00134423   -0.00000778    0.00059307
     atom   20 type  2   force =     0.00083449   -0.00002188    0.00047971
     atom   21 type  2   force =     0.00093553    0.00001187    0.00009691
     atom   22 type  2   force =    -0.00084185    0.00002042    0.00013513
     atom   23 type  2   force =    -0.00002555    0.00001706    0.00056570

     Total force =     0.556876     Total SCF correction =     0.003440


     Computing stress (Cartesian axis) and pressure

          total   stress  (Ry/bohr**3)                   (kbar)     P=      -59.04
  -0.00025188   0.00000587  -0.00011582          -37.05        0.86      -17.04
   0.00000587  -0.00087764  -0.00001641            0.86     -129.11       -2.41
  -0.00011582  -0.00001641  -0.00007450          -17.04       -2.41      -10.96

     kinetic stress (kbar)  39468.89      2.46      5.28
                                2.46  39381.09     -9.12
                                5.28     -9.12  39147.39

     local   stress (kbar)-128489.59      0.66  -1388.52
                                0.66-136561.43   -282.57
                            -1388.52   -282.57 120448.14

     nonloc. stress (kbar)  17513.32      0.28      6.48
                                0.28  17506.50     -0.08
                                6.48     -0.08  17485.52

     hartree stress (kbar)  99887.58     -0.58    537.42
                               -0.58 103063.15    169.56
                              537.42    169.56 -22550.02

     exc-cor stress (kbar)  -9735.62      0.01      0.34
                                0.01  -9732.51     -0.12
                                0.34     -0.12  -9732.43

     corecor stress (kbar)  -3131.49     -0.01     -0.09
                               -0.01  -3131.30      0.10
                               -0.09      0.10  -3132.84

     ewald   stress (kbar) -15550.14     -1.96    822.06
                               -1.96 -10654.61    119.82
                              822.06    119.82-141676.72

     hubbard stress (kbar)      0.00      0.00      0.00
                                0.00      0.00      0.00
                                0.00      0.00      0.00

     london  stress (kbar)      0.00      0.00      0.00
                                0.00      0.00      0.00
                                0.00      0.00      0.00

     DFT-D3  stress (kbar)      0.00      0.00      0.00
                                0.00      0.00      0.00
                                0.00      0.00      0.00

     XDM     stress (kbar)      0.00      0.00      0.00
                                0.00      0.00      0.00
                                0.00      0.00      0.00

     dft-nl  stress (kbar)      0.00      0.00      0.00
                                0.00      0.00      0.00
                                0.00      0.00      0.00

     TS-vdW  stress (kbar)      0.00      0.00      0.00
                                0.00      0.00      0.00
                                0.00      0.00      0.00



     Writing output data file /tmp//Al_Ni(100)_ZrO2(110)+vacuum.save/
 
     init_run     :     35.62s CPU    223.25s WALL (       1 calls)
     electrons    :   7670.76s CPU  56045.15s WALL (       1 calls)
     forces       :     16.42s CPU    106.76s WALL (       1 calls)
     stress       :     66.29s CPU    423.45s WALL (       1 calls)

     Called by init_run:
     wfcinit      :     23.50s CPU    155.38s WALL (       1 calls)
     wfcinit:atom :      0.10s CPU      0.24s WALL (      16 calls)
     wfcinit:wfcr :     22.60s CPU    150.15s WALL (      16 calls)
     potinit      :      4.20s CPU     23.83s WALL (       1 calls)
     hinit0       :      6.53s CPU     34.09s WALL (       1 calls)

     Called by electrons:
     c_bands      :   6293.76s CPU  45749.93s WALL (     124 calls)
     sum_band     :   1096.35s CPU   8001.87s WALL (     124 calls)
     v_of_rho     :     44.16s CPU    302.88s WALL (     125 calls)
     v_h          :      1.72s CPU      9.87s WALL (     125 calls)
     v_xc         :     43.13s CPU    297.60s WALL (     127 calls)
     newd         :    138.87s CPU   1259.79s WALL (     125 calls)
     PAW_pot      :     74.10s CPU    536.97s WALL (     125 calls)
     mix_rho      :     20.10s CPU    164.28s WALL (     124 calls)

     Called by c_bands:
     init_us_2    :     27.47s CPU    105.94s WALL (    4016 calls)
     cegterg      :   6049.81s CPU  44127.24s WALL (    1984 calls)

     Called by sum_band:
     sum_band:bec :      1.46s CPU      1.54s WALL (    1984 calls)
     addusdens    :    236.81s CPU   1891.03s WALL (     124 calls)

     Called by *egterg:
     h_psi        :   3383.71s CPU  24114.82s WALL (    5404 calls)
     s_psi        :    378.90s CPU   2458.30s WALL (    5404 calls)
     g_psi        :     18.62s CPU    138.56s WALL (    3404 calls)
     cdiaghg      :   1050.93s CPU   8856.78s WALL (    5388 calls)
     cegterg:over :    514.03s CPU   3572.88s WALL (    3404 calls)
     cegterg:upda :    280.78s CPU   1828.72s WALL (    3404 calls)
     cegterg:last :    203.89s CPU   1304.03s WALL (    1988 calls)
     cdiaghg:chol :     37.14s CPU    349.95s WALL (    5388 calls)
     cdiaghg:inve :     12.23s CPU     69.31s WALL (    5388 calls)
     cdiaghg:para :    124.64s CPU    886.70s WALL (   10776 calls)

     Called by h_psi:
     h_psi:calbec :    434.46s CPU   2961.27s WALL (    5404 calls)
     vloc_psi     :   2563.66s CPU  18686.02s WALL (    5404 calls)
     add_vuspsi   :    378.76s CPU   2265.88s WALL (    5404 calls)

     General routines
     calbec       :    649.02s CPU   4441.66s WALL (    7468 calls)
     fft          :     43.55s CPU    353.96s WALL (    3163 calls)
     ffts         :      1.39s CPU     13.01s WALL (     498 calls)
     fftw         :   2935.76s CPU  22882.30s WALL ( 1797336 calls)
     interpolate  :      2.75s CPU     19.99s WALL (     250 calls)
 
     Parallel routines
     fft_scatt_xy :    311.50s CPU    328.78s WALL ( 1800997 calls)
     fft_scatt_yz :   1593.73s CPU  21796.38s WALL ( 1800997 calls)

     PAW routines
     PAW_pot      :     74.10s CPU    536.97s WALL (     125 calls)
 
     PWSCF        :      2h10m CPU     15h51m WALL

 
   This run was terminated on:   9: 1:24  23Aug2022            

=------------------------------------------------------------------------------=
   JOB DONE.
=------------------------------------------------------------------------------=
