
     Program PWSCF v.6.5 starts on 22Aug2022 at 17:11:10 

     This program is part of the open-source Quantum ESPRESSO suite
     for quantum simulation of materials; please cite
         "P. Giannozzi et al., J. Phys.:Condens. Matter 21 395502 (2009);
         "P. Giannozzi et al., J. Phys.:Condens. Matter 29 465901 (2017);
          URL http://www.quantum-espresso.org", 
     in publications or presentations arising from this work. More details at
     http://www.quantum-espresso.org/quote

     Parallel version (MPI), running on     8 processors

     MPI processes distributed on     1 nodes
     R & G space division:  proc/nbgrp/npool/nimage =       8
     Waiting for input...
     Reading input from standard input

     Current dimensions of program PWSCF are:
     Max number of different atomic species (ntypx) = 10
     Max number of k-points (npk) =  40000
     Max angular momentum in pseudopotentials (lmaxx) =  3
               file O.pbesol-n-kjpaw_psl.0.1.UPF: wavefunction(s)  2P renormalized

     Subspace diagonalization in iterative solution of the eigenvalue problem:
     one sub-group per band group will be used
     scalapack distributed-memory algorithm (size of sub-group:  2*  2 procs)

 
     Parallelization info
     --------------------
     sticks:   dense  smooth     PW     G-vecs:    dense   smooth      PW
     Min        1030     514    143                87478    30912    4533
     Max        1031     515    144                87483    30917    4536
     Sum        8245    4119   1147               699835   247329   36281
 


     bravais-lattice index     =            0
     lattice parameter (alat)  =      19.1327  a.u.
     unit-cell volume          =    1831.1486 (a.u.)^3
     number of atoms/cell      =           24
     number of atomic types    =            3
     number of electrons       =       312.00
     number of Kohn-Sham states=          187
     kinetic-energy cutoff     =     100.0000  Ry
     charge density cutoff     =     800.0000  Ry
     convergence threshold     =      1.0E-06
     mixing beta               =       0.4000
     number of iterations used =            8  plain     mixing
     Exchange-correlation= SLA  PW   PSX  PSC
                           (   1   4  10   8   0   0   0)

     celldm(1)=  19.132690  celldm(2)=   0.000000  celldm(3)=   0.000000
     celldm(4)=   0.000000  celldm(5)=   0.000000  celldm(6)=   0.000000

     crystal axes: (cart. coord. in units of alat)
               a(1) = (   1.000000   0.000000   0.000000 )  
               a(2) = (   0.000000   0.353553   0.000000 )  
               a(3) = (   0.000000   0.000000   0.739504 )  

     reciprocal axes: (cart. coord. in units 2 pi/alat)
               b(1) = (  1.000000  0.000000  0.000000 )  
               b(2) = (  0.000000  2.828428  0.000000 )  
               b(3) = (  0.000000  0.000000  1.352258 )  


     PseudoPot. # 1 for Ni read from file:
     /home/zczlx99/q-e/pseudo/DFT/ni_pbesol_v1.4.uspp.F.UPF
     MD5 check sum: de937c0c8ae4b350e69c02b76d8a83cb
     Pseudo is Ultrasoft + core correction, Zval = 18.0
     Generated by new atomic code, or converted to UPF format
     Using radial grid of  865 points,  6 beta functions with: 
                l(1) =   0
                l(2) =   0
                l(3) =   1
                l(4) =   1
                l(5) =   2
                l(6) =   2
     Q(r) pseudized with 10 coefficients,  rinner =    0.980   0.980   0.980
                                                       0.980   0.980

     PseudoPot. # 2 for O  read from file:
     /home/zczlx99/q-e/pseudo/DFT/O.pbesol-n-kjpaw_psl.0.1.UPF
     MD5 check sum: 81d73d1479e654e5638b0319f0d6c2c7
     Pseudo is Projector augmented-wave + core cor, Zval =  6.0
     Generated using "atomic" code by A. Dal Corso v.6.0 svn rev. 13079
     Shape of augmentation charge: BESSEL
     Using radial grid of 1095 points,  4 beta functions with: 
                l(1) =   0
                l(2) =   0
                l(3) =   1
                l(4) =   1
     Q(r) pseudized with 0 coefficients 


     PseudoPot. # 3 for Zr read from file:
     /home/zczlx99/q-e/pseudo/DFT/zr_pbesol_v1.uspp.F.UPF
     MD5 check sum: f29f2a20533738a515abe666fee35838
     Pseudo is Ultrasoft + core correction, Zval = 12.0
     Generated by new atomic code, or converted to UPF format
     Using radial grid of  887 points,  6 beta functions with: 
                l(1) =   0
                l(2) =   0
                l(3) =   1
                l(4) =   1
                l(5) =   2
                l(6) =   2
     Q(r) pseudized with  6 coefficients,  rinner =    1.200   1.200   1.200
                                                       1.200   1.200

     atomic species   valence    mass     pseudopotential
        Ni            18.00    58.69340     Ni( 1.00)
        O              6.00    15.99940     O ( 1.00)
        Zr            12.00    91.22400     Zr( 1.00)

     Starting magnetic structure 
     atomic species   magnetization
        Ni           0.278
        O            0.100
        Zr           0.417

     No symmetry found


                                    s                        frac. trans.

      isym =  1     identity                                     

 cryst.   s( 1) = (     1          0          0      )
                  (     0          1          0      )
                  (     0          0          1      )

 cart.    s( 1) = (  1.0000000  0.0000000  0.0000000 )
                  (  0.0000000  1.0000000  0.0000000 )
                  (  0.0000000  0.0000000  1.0000000 )


   Cartesian axes

     site n.     atom                  positions (alat units)
         1           Zr  tau(   1) = (   0.0468750   0.1459866   0.1459866  )
         2           Zr  tau(   2) = (   0.5468750   0.1459866   0.1459866  )
         3           Zr  tau(   3) = (   0.2968750   0.3227633   0.3227633  )
         4           Zr  tau(   4) = (   0.7968750   0.3227633   0.3227633  )
         5           O   tau(   5) = (   0.1718750   0.1459866   0.3227633  )
         6           O   tau(   6) = (   0.6718750   0.1459866   0.3227633  )
         7           O   tau(   7) = (   0.4218749   0.1459866   0.3227633  )
         8           O   tau(   8) = (   0.9218750   0.1459866   0.3227633  )
         9           O   tau(   9) = (   0.1718750   0.3227633   0.1459866  )
        10           O   tau(  10) = (   0.6718750   0.3227633   0.1459866  )
        11           O   tau(  11) = (   0.4218749   0.3227633   0.1459866  )
        12           O   tau(  12) = (   0.9218750   0.3227633   0.1459866  )
        13           Ni  tau(  13) = (   0.0699886   0.1523850   0.5188821  )
        14           Ni  tau(  14) = (   0.4107433   0.1523850   0.5188821  )
        15           Ni  tau(  15) = (   0.7514981   0.1523850   0.5188821  )
        16           Ni  tau(  16) = (   0.2403659   0.3227624   0.5188821  )
        17           Ni  tau(  17) = (   0.5811207   0.3227624   0.5188821  )
        18           Ni  tau(  18) = (   0.9218755   0.3227624   0.5188821  )
        19           Ni  tau(  19) = (   0.2403659   0.1523850   0.6892595  )
        20           Ni  tau(  20) = (   0.5811207   0.1523850   0.6892595  )
        21           Ni  tau(  21) = (   0.9218755   0.1523850   0.6892595  )
        22           Ni  tau(  22) = (   0.0699886   0.3227624   0.6892595  )
        23           Ni  tau(  23) = (   0.4107433   0.3227624   0.6892595  )
        24           Ni  tau(  24) = (   0.7514981   0.3227624   0.6892595  )

   Crystallographic axes

     site n.     atom                  positions (cryst. coord.)
         1           Zr  tau(   1) = (  0.0468750  0.4129124  0.1974114  )
         2           Zr  tau(   2) = (  0.5468750  0.4129124  0.1974114  )
         3           Zr  tau(   3) = (  0.2968750  0.9129127  0.4364591  )
         4           Zr  tau(   4) = (  0.7968750  0.9129127  0.4364591  )
         5           O   tau(   5) = (  0.1718750  0.4129124  0.4364591  )
         6           O   tau(   6) = (  0.6718750  0.4129124  0.4364591  )
         7           O   tau(   7) = (  0.4218749  0.4129124  0.4364591  )
         8           O   tau(   8) = (  0.9218750  0.4129124  0.4364591  )
         9           O   tau(   9) = (  0.1718750  0.9129127  0.1974114  )
        10           O   tau(  10) = (  0.6718750  0.9129127  0.1974114  )
        11           O   tau(  11) = (  0.4218749  0.9129127  0.1974114  )
        12           O   tau(  12) = (  0.9218750  0.9129127  0.1974114  )
        13           Ni  tau(  13) = (  0.0699886  0.4310101  0.7016622  )
        14           Ni  tau(  14) = (  0.4107433  0.4310101  0.7016622  )
        15           Ni  tau(  15) = (  0.7514981  0.4310101  0.7016622  )
        16           Ni  tau(  16) = (  0.2403659  0.9129102  0.7016622  )
        17           Ni  tau(  17) = (  0.5811207  0.9129102  0.7016622  )
        18           Ni  tau(  18) = (  0.9218755  0.9129102  0.7016622  )
        19           Ni  tau(  19) = (  0.2403659  0.4310101  0.9320563  )
        20           Ni  tau(  20) = (  0.5811207  0.4310101  0.9320563  )
        21           Ni  tau(  21) = (  0.9218755  0.4310101  0.9320563  )
        22           Ni  tau(  22) = (  0.0699886  0.9129102  0.9320563  )
        23           Ni  tau(  23) = (  0.4107433  0.9129102  0.9320563  )
        24           Ni  tau(  24) = (  0.7514981  0.9129102  0.9320563  )

     number of k points=     8  Marzari-Vanderbilt smearing, width (Ry)=  0.0147
                       cart. coord. in units 2pi/alat
        k(    1) = (   0.0000000   0.0000000   0.0000000), wk =   0.1250000
        k(    2) = (   0.0000000   0.0000000  -0.6761288), wk =   0.1250000
        k(    3) = (   0.0000000  -1.4142138   0.0000000), wk =   0.1250000
        k(    4) = (   0.0000000  -1.4142138  -0.6761288), wk =   0.1250000
        k(    5) = (  -0.5000000   0.0000000   0.0000000), wk =   0.1250000
        k(    6) = (  -0.5000000   0.0000000  -0.6761288), wk =   0.1250000
        k(    7) = (  -0.5000000  -1.4142138   0.0000000), wk =   0.1250000
        k(    8) = (  -0.5000000  -1.4142138  -0.6761288), wk =   0.1250000

                       cryst. coord.
        k(    1) = (   0.0000000   0.0000000   0.0000000), wk =   0.1250000
        k(    2) = (   0.0000000   0.0000000  -0.5000000), wk =   0.1250000
        k(    3) = (   0.0000000  -0.5000000   0.0000000), wk =   0.1250000
        k(    4) = (   0.0000000  -0.5000000  -0.5000000), wk =   0.1250000
        k(    5) = (  -0.5000000   0.0000000   0.0000000), wk =   0.1250000
        k(    6) = (  -0.5000000   0.0000000  -0.5000000), wk =   0.1250000
        k(    7) = (  -0.5000000  -0.5000000   0.0000000), wk =   0.1250000
        k(    8) = (  -0.5000000  -0.5000000  -0.5000000), wk =   0.1250000

     Dense  grid:   699835 G-vectors     FFT dimensions: ( 180,  64, 128)

     Smooth grid:   247329 G-vectors     FFT dimensions: ( 125,  45,  96)

     Dynamical RAM for                 wfc:      11.03 MB

     Dynamical RAM for     wfc (w. buffer):     187.48 MB

     Dynamical RAM for           str. fact:       4.00 MB

     Dynamical RAM for           local pot:       0.00 MB

     Dynamical RAM for          nlocal pot:      20.76 MB

     Dynamical RAM for                qrad:      20.71 MB

     Dynamical RAM for          rho,v,vnew:      16.45 MB

     Dynamical RAM for               rhoin:       5.48 MB

     Dynamical RAM for            rho*nmix:      42.71 MB

     Dynamical RAM for           G-vectors:       5.24 MB

     Dynamical RAM for          h,s,v(r/c):       6.40 MB

     Dynamical RAM for          <psi|beta>:       1.00 MB

     Dynamical RAM for                 psi:      44.11 MB

     Dynamical RAM for                hpsi:      44.11 MB

     Dynamical RAM for                spsi:      44.11 MB

     Dynamical RAM for      wfcinit/wfcrot:      29.63 MB

     Dynamical RAM for           addusdens:     265.63 MB

     Dynamical RAM for          addusforce:     343.24 MB

     Dynamical RAM for         addusstress:     270.30 MB

     Estimated static dynamical RAM per process >     316.61 MB

     Estimated max dynamical RAM per process >     659.86 MB

     Estimated total dynamical RAM >       5.16 GB
     Generating pointlists ...
     new r_m :   0.0811 (alat units)  1.5511 (a.u.) for type    1
     new r_m :   0.0811 (alat units)  1.5511 (a.u.) for type    2
     new r_m :   0.0822 (alat units)  1.5729 (a.u.) for type    3

     Check: negative core charge=   -0.000003

     Initial potential from superposition of free atoms

     starting charge  287.99210, renormalised to  312.00000
     Starting wfcs are  240 randomized atomic wfcs
     Checking if some PAW data can be deallocated... 
       PAW data deallocated on    5 nodes for type:  2

     total cpu time spent up to now is      233.3 secs

     Self-consistent Calculation

     iteration #  1     ecut=   100.00 Ry     beta= 0.40
     Davidson diagonalization with overlap
     ethr =  1.00E-02,  avg # of iterations =  3.0

     total cpu time spent up to now is      960.8 secs

     total energy              =   -4771.63057334 Ry
     Harris-Foulkes estimate   =   -4889.06803395 Ry
     estimated scf accuracy    <     223.49250791 Ry

     total magnetization       =    26.93 Bohr mag/cell
     absolute magnetization    =    28.61 Bohr mag/cell

     iteration #  2     ecut=   100.00 Ry     beta= 0.40
     Davidson diagonalization with overlap
     ethr =  1.00E-02,  avg # of iterations =  5.1

     total cpu time spent up to now is     1973.5 secs

     total energy              =   -4753.59686618 Ry
     Harris-Foulkes estimate   =   -4864.40378323 Ry
     estimated scf accuracy    <     390.93553351 Ry

     total magnetization       =    19.26 Bohr mag/cell
     absolute magnetization    =    20.88 Bohr mag/cell

     iteration #  3     ecut=   100.00 Ry     beta= 0.40
     Davidson diagonalization with overlap
     ethr =  1.00E-02,  avg # of iterations =  4.4

     total cpu time spent up to now is     2874.3 secs

     total energy              =   -4775.26842962 Ry
     Harris-Foulkes estimate   =   -4931.35790390 Ry
     estimated scf accuracy    <    1552.12383779 Ry

     total magnetization       =     4.38 Bohr mag/cell
     absolute magnetization    =     5.43 Bohr mag/cell

     iteration #  4     ecut=   100.00 Ry     beta= 0.40
     Davidson diagonalization with overlap
     ethr =  1.00E-02,  avg # of iterations =  4.5

     total cpu time spent up to now is     3766.3 secs

     total energy              =   -4836.73958549 Ry
     Harris-Foulkes estimate   =   -4869.75464573 Ry
     estimated scf accuracy    <     206.11649692 Ry

     total magnetization       =     9.25 Bohr mag/cell
     absolute magnetization    =    10.95 Bohr mag/cell

     iteration #  5     ecut=   100.00 Ry     beta= 0.40
     Davidson diagonalization with overlap
     ethr =  1.00E-02,  avg # of iterations =  3.0

     total cpu time spent up to now is     4296.7 secs

     total energy              =   -4844.97084249 Ry
     Harris-Foulkes estimate   =   -4849.83599357 Ry
     estimated scf accuracy    <      57.28301281 Ry

     total magnetization       =    13.43 Bohr mag/cell
     absolute magnetization    =    15.31 Bohr mag/cell

     iteration #  6     ecut=   100.00 Ry     beta= 0.40
     Davidson diagonalization with overlap
     ethr =  1.00E-02,  avg # of iterations =  1.0

     total cpu time spent up to now is     4675.6 secs

     total energy              =   -4844.25031612 Ry
     Harris-Foulkes estimate   =   -4846.79707386 Ry
     estimated scf accuracy    <      34.47938080 Ry

     total magnetization       =    10.05 Bohr mag/cell
     absolute magnetization    =    12.55 Bohr mag/cell

     iteration #  7     ecut=   100.00 Ry     beta= 0.40
     Davidson diagonalization with overlap
     ethr =  1.00E-02,  avg # of iterations =  1.0

     total cpu time spent up to now is     5058.4 secs

     total energy              =   -4843.58015752 Ry
     Harris-Foulkes estimate   =   -4846.07976840 Ry
     estimated scf accuracy    <      37.42125956 Ry

     total magnetization       =    10.62 Bohr mag/cell
     absolute magnetization    =    13.13 Bohr mag/cell

     iteration #  8     ecut=   100.00 Ry     beta= 0.40
     Davidson diagonalization with overlap
     ethr =  1.00E-02,  avg # of iterations =  1.0

     total cpu time spent up to now is     5447.0 secs

     total energy              =   -4842.82193360 Ry
     Harris-Foulkes estimate   =   -4845.76206718 Ry
     estimated scf accuracy    <      47.92754805 Ry

     total magnetization       =     9.00 Bohr mag/cell
     absolute magnetization    =    11.48 Bohr mag/cell

     iteration #  9     ecut=   100.00 Ry     beta= 0.40
     Davidson diagonalization with overlap
     ethr =  1.00E-02,  avg # of iterations =  1.0

     total cpu time spent up to now is     5832.7 secs

     total energy              =   -4842.04145994 Ry
     Harris-Foulkes estimate   =   -4844.07792981 Ry
     estimated scf accuracy    <      16.66765058 Ry

     total magnetization       =    10.95 Bohr mag/cell
     absolute magnetization    =    13.44 Bohr mag/cell

     iteration # 10     ecut=   100.00 Ry     beta= 0.40
     Davidson diagonalization with overlap
     ethr =  5.34E-03,  avg # of iterations =  1.0

     total cpu time spent up to now is     6211.0 secs

     total energy              =   -4842.67572445 Ry
     Harris-Foulkes estimate   =   -4843.79966029 Ry
     estimated scf accuracy    <      13.56818449 Ry

     total magnetization       =    10.06 Bohr mag/cell
     absolute magnetization    =    12.39 Bohr mag/cell

     iteration # 11     ecut=   100.00 Ry     beta= 0.40
     Davidson diagonalization with overlap
     ethr =  4.35E-03,  avg # of iterations =  2.9

     total cpu time spent up to now is     6670.3 secs

     total energy              =   -4842.93644886 Ry
     Harris-Foulkes estimate   =   -4844.74825730 Ry
     estimated scf accuracy    <      29.79782669 Ry

     total magnetization       =     8.61 Bohr mag/cell
     absolute magnetization    =    10.65 Bohr mag/cell

     iteration # 12     ecut=   100.00 Ry     beta= 0.40
     Davidson diagonalization with overlap
     ethr =  4.35E-03,  avg # of iterations =  1.4

     total cpu time spent up to now is     7064.1 secs

     total energy              =   -4842.82507939 Ry
     Harris-Foulkes estimate   =   -4843.90763583 Ry
     estimated scf accuracy    <      12.62947891 Ry

     total magnetization       =    10.20 Bohr mag/cell
     absolute magnetization    =    12.41 Bohr mag/cell

     iteration # 13     ecut=   100.00 Ry     beta= 0.40
     Davidson diagonalization with overlap
     ethr =  4.05E-03,  avg # of iterations =  1.3

     total cpu time spent up to now is     7445.4 secs

     total energy              =   -4843.15185853 Ry
     Harris-Foulkes estimate   =   -4843.47611492 Ry
     estimated scf accuracy    <       3.64523216 Ry

     total magnetization       =     9.07 Bohr mag/cell
     absolute magnetization    =    11.28 Bohr mag/cell

     iteration # 14     ecut=   100.00 Ry     beta= 0.40
     Davidson diagonalization with overlap
     ethr =  1.17E-03,  avg # of iterations =  4.2

     total cpu time spent up to now is     7944.2 secs

     total energy              =   -4842.93373164 Ry
     Harris-Foulkes estimate   =   -4843.64173758 Ry
     estimated scf accuracy    <       8.23684221 Ry

     total magnetization       =     8.95 Bohr mag/cell
     absolute magnetization    =    10.96 Bohr mag/cell

     iteration # 15     ecut=   100.00 Ry     beta= 0.40
     Davidson diagonalization with overlap
     ethr =  1.17E-03,  avg # of iterations =  1.6

     total cpu time spent up to now is     8339.6 secs

     total energy              =   -4842.96181479 Ry
     Harris-Foulkes estimate   =   -4844.04023006 Ry
     estimated scf accuracy    <      16.17459685 Ry

     total magnetization       =     9.79 Bohr mag/cell
     absolute magnetization    =    11.75 Bohr mag/cell

     iteration # 16     ecut=   100.00 Ry     beta= 0.40
     Davidson diagonalization with overlap
     ethr =  1.17E-03,  avg # of iterations =  1.4

     total cpu time spent up to now is     8724.7 secs

     total energy              =   -4843.25029066 Ry
     Harris-Foulkes estimate   =   -4843.53560156 Ry
     estimated scf accuracy    <       3.47178491 Ry

     total magnetization       =     8.88 Bohr mag/cell
     absolute magnetization    =    10.95 Bohr mag/cell

     iteration # 17     ecut=   100.00 Ry     beta= 0.40
     Davidson diagonalization with overlap
     ethr =  1.11E-03,  avg # of iterations =  1.0

     total cpu time spent up to now is     9096.1 secs

     total energy              =   -4843.05113355 Ry
     Harris-Foulkes estimate   =   -4843.65365524 Ry
     estimated scf accuracy    <       8.58486806 Ry

     total magnetization       =     8.93 Bohr mag/cell
     absolute magnetization    =    10.80 Bohr mag/cell

     iteration # 18     ecut=   100.00 Ry     beta= 0.40
     Davidson diagonalization with overlap
     ethr =  1.11E-03,  avg # of iterations =  3.1

     total cpu time spent up to now is     9546.7 secs

     total energy              =   -4842.98987372 Ry
     Harris-Foulkes estimate   =   -4844.09409993 Ry
     estimated scf accuracy    <      17.65146063 Ry

     total magnetization       =    10.15 Bohr mag/cell
     absolute magnetization    =    11.86 Bohr mag/cell

     iteration # 19     ecut=   100.00 Ry     beta= 0.40
     Davidson diagonalization with overlap
     ethr =  1.11E-03,  avg # of iterations =  1.4

     total cpu time spent up to now is     9940.0 secs

     total energy              =   -4843.40124506 Ry
     Harris-Foulkes estimate   =   -4843.48305002 Ry
     estimated scf accuracy    <       1.35594045 Ry

     total magnetization       =     8.89 Bohr mag/cell
     absolute magnetization    =    10.62 Bohr mag/cell

     iteration # 20     ecut=   100.00 Ry     beta= 0.40
     Davidson diagonalization with overlap
     ethr =  4.35E-04,  avg # of iterations =  1.2

     total cpu time spent up to now is    10322.8 secs

     total energy              =   -4843.38452168 Ry
     Harris-Foulkes estimate   =   -4843.47142790 Ry
     estimated scf accuracy    <       0.64309369 Ry

     total magnetization       =     8.89 Bohr mag/cell
     absolute magnetization    =    10.58 Bohr mag/cell

     iteration # 21     ecut=   100.00 Ry     beta= 0.40
     Davidson diagonalization with overlap
     ethr =  2.06E-04,  avg # of iterations =  3.1

     total cpu time spent up to now is    10780.2 secs

     total energy              =   -4843.38435727 Ry
     Harris-Foulkes estimate   =   -4843.56113611 Ry
     estimated scf accuracy    <       2.77220507 Ry

     total magnetization       =     8.87 Bohr mag/cell
     absolute magnetization    =    10.69 Bohr mag/cell

     iteration # 22     ecut=   100.00 Ry     beta= 0.40
     Davidson diagonalization with overlap
     ethr =  2.06E-04,  avg # of iterations =  1.8

     total cpu time spent up to now is    11192.1 secs

     total energy              =   -4843.39234300 Ry
     Harris-Foulkes estimate   =   -4843.51510415 Ry
     estimated scf accuracy    <       1.36527704 Ry

     total magnetization       =     8.82 Bohr mag/cell
     absolute magnetization    =    10.35 Bohr mag/cell

     iteration # 23     ecut=   100.00 Ry     beta= 0.40
     Davidson diagonalization with overlap
     ethr =  2.06E-04,  avg # of iterations =  1.4

     total cpu time spent up to now is    11585.9 secs

     total energy              =   -4843.41741164 Ry
     Harris-Foulkes estimate   =   -4843.50802492 Ry
     estimated scf accuracy    <       1.38304156 Ry

     total magnetization       =     8.90 Bohr mag/cell
     absolute magnetization    =    10.53 Bohr mag/cell

     iteration # 24     ecut=   100.00 Ry     beta= 0.40
     Davidson diagonalization with overlap
     ethr =  2.06E-04,  avg # of iterations =  1.0

     total cpu time spent up to now is    11964.5 secs

     total energy              =   -4843.44423484 Ry
     Harris-Foulkes estimate   =   -4843.48487131 Ry
     estimated scf accuracy    <       0.48382977 Ry

     total magnetization       =     8.89 Bohr mag/cell
     absolute magnetization    =    10.39 Bohr mag/cell

     iteration # 25     ecut=   100.00 Ry     beta= 0.40
     Davidson diagonalization with overlap
     ethr =  1.55E-04,  avg # of iterations =  1.0

     total cpu time spent up to now is    12346.1 secs

     total energy              =   -4843.45402973 Ry
     Harris-Foulkes estimate   =   -4843.48199084 Ry
     estimated scf accuracy    <       0.39596262 Ry

     total magnetization       =     8.86 Bohr mag/cell
     absolute magnetization    =    10.35 Bohr mag/cell

     iteration # 26     ecut=   100.00 Ry     beta= 0.40
     Davidson diagonalization with overlap
     ethr =  1.27E-04,  avg # of iterations =  1.0

     total cpu time spent up to now is    12725.1 secs

     total energy              =   -4843.43259993 Ry
     Harris-Foulkes estimate   =   -4843.51982387 Ry
     estimated scf accuracy    <       1.63673120 Ry

     total magnetization       =     8.82 Bohr mag/cell
     absolute magnetization    =    10.24 Bohr mag/cell

     iteration # 27     ecut=   100.00 Ry     beta= 0.40
     Davidson diagonalization with overlap
     ethr =  1.27E-04,  avg # of iterations =  1.0

     total cpu time spent up to now is    13106.8 secs

     total energy              =   -4843.47062667 Ry
     Harris-Foulkes estimate   =   -4843.48151274 Ry
     estimated scf accuracy    <       0.18240700 Ry

     total magnetization       =     8.81 Bohr mag/cell
     absolute magnetization    =    10.17 Bohr mag/cell

     iteration # 28     ecut=   100.00 Ry     beta= 0.40
     Davidson diagonalization with overlap
     ethr =  5.85E-05,  avg # of iterations =  1.0

     total cpu time spent up to now is    13490.9 secs

     total energy              =   -4843.45909583 Ry
     Harris-Foulkes estimate   =   -4843.48592341 Ry
     estimated scf accuracy    <       0.26067153 Ry

     total magnetization       =     8.75 Bohr mag/cell
     absolute magnetization    =    10.08 Bohr mag/cell

     iteration # 29     ecut=   100.00 Ry     beta= 0.40
     Davidson diagonalization with overlap
     ethr =  5.85E-05,  avg # of iterations =  1.5

     total cpu time spent up to now is    13895.0 secs

     total energy              =   -4843.44998442 Ry
     Harris-Foulkes estimate   =   -4843.49740799 Ry
     estimated scf accuracy    <       0.84636223 Ry

     total magnetization       =     8.82 Bohr mag/cell
     absolute magnetization    =    10.22 Bohr mag/cell

     iteration # 30     ecut=   100.00 Ry     beta= 0.40
     Davidson diagonalization with overlap
     ethr =  5.85E-05,  avg # of iterations =  1.0

     total cpu time spent up to now is    14273.9 secs

     total energy              =   -4843.46724648 Ry
     Harris-Foulkes estimate   =   -4843.48516317 Ry
     estimated scf accuracy    <       0.48790010 Ry

     total magnetization       =     8.80 Bohr mag/cell
     absolute magnetization    =    10.16 Bohr mag/cell

     iteration # 31     ecut=   100.00 Ry     beta= 0.40
     Davidson diagonalization with overlap
     ethr =  5.85E-05,  avg # of iterations =  1.0

     total cpu time spent up to now is    14643.4 secs

     total energy              =   -4843.46864615 Ry
     Harris-Foulkes estimate   =   -4843.48652756 Ry
     estimated scf accuracy    <       0.32581421 Ry

     total magnetization       =     8.79 Bohr mag/cell
     absolute magnetization    =    10.10 Bohr mag/cell

     iteration # 32     ecut=   100.00 Ry     beta= 0.40
     Davidson diagonalization with overlap
     ethr =  5.85E-05,  avg # of iterations =  1.0

     total cpu time spent up to now is    15024.8 secs

     total energy              =   -4843.46908063 Ry
     Harris-Foulkes estimate   =   -4843.49002376 Ry
     estimated scf accuracy    <       0.40766006 Ry

     total magnetization       =     8.63 Bohr mag/cell
     absolute magnetization    =     9.90 Bohr mag/cell

     iteration # 33     ecut=   100.00 Ry     beta= 0.40
     Davidson diagonalization with overlap
     ethr =  5.85E-05,  avg # of iterations =  1.0

     total cpu time spent up to now is    15405.9 secs

     total energy              =   -4843.47378605 Ry
     Harris-Foulkes estimate   =   -4843.48427146 Ry
     estimated scf accuracy    <       0.14561340 Ry

     total magnetization       =     8.67 Bohr mag/cell
     absolute magnetization    =     9.92 Bohr mag/cell

     iteration # 34     ecut=   100.00 Ry     beta= 0.40
     Davidson diagonalization with overlap
     ethr =  4.67E-05,  avg # of iterations =  1.6

     total cpu time spent up to now is    15811.9 secs

     total energy              =   -4843.47600810 Ry
     Harris-Foulkes estimate   =   -4843.48243980 Ry
     estimated scf accuracy    <       0.12598049 Ry

     total magnetization       =     8.67 Bohr mag/cell
     absolute magnetization    =     9.93 Bohr mag/cell

     iteration # 35     ecut=   100.00 Ry     beta= 0.40
     Davidson diagonalization with overlap
     ethr =  4.04E-05,  avg # of iterations =  1.0

     total cpu time spent up to now is    16193.1 secs

     total energy              =   -4843.47805709 Ry
     Harris-Foulkes estimate   =   -4843.48142928 Ry
     estimated scf accuracy    <       0.05648744 Ry

     total magnetization       =     8.69 Bohr mag/cell
     absolute magnetization    =     9.94 Bohr mag/cell

     iteration # 36     ecut=   100.00 Ry     beta= 0.40
     Davidson diagonalization with overlap
     ethr =  1.81E-05,  avg # of iterations =  1.3

     total cpu time spent up to now is    16594.5 secs

     total energy              =   -4843.47863098 Ry
     Harris-Foulkes estimate   =   -4843.48168204 Ry
     estimated scf accuracy    <       0.03939619 Ry

     total magnetization       =     8.68 Bohr mag/cell
     absolute magnetization    =     9.91 Bohr mag/cell

     iteration # 37     ecut=   100.00 Ry     beta= 0.40
     Davidson diagonalization with overlap
     ethr =  1.26E-05,  avg # of iterations =  1.4

     total cpu time spent up to now is    16996.3 secs

     total energy              =   -4843.48014311 Ry
     Harris-Foulkes estimate   =   -4843.48069509 Ry
     estimated scf accuracy    <       0.01137759 Ry

     total magnetization       =     8.66 Bohr mag/cell
     absolute magnetization    =     9.89 Bohr mag/cell

     iteration # 38     ecut=   100.00 Ry     beta= 0.40
     Davidson diagonalization with overlap
     ethr =  3.65E-06,  avg # of iterations =  2.3

     total cpu time spent up to now is    17419.3 secs

     total energy              =   -4843.48005020 Ry
     Harris-Foulkes estimate   =   -4843.48153595 Ry
     estimated scf accuracy    <       0.02180577 Ry

     total magnetization       =     8.64 Bohr mag/cell
     absolute magnetization    =     9.84 Bohr mag/cell

     iteration # 39     ecut=   100.00 Ry     beta= 0.40
     Davidson diagonalization with overlap
     ethr =  3.65E-06,  avg # of iterations =  1.0

     total cpu time spent up to now is    17807.1 secs

     total energy              =   -4843.47935178 Ry
     Harris-Foulkes estimate   =   -4843.48182753 Ry
     estimated scf accuracy    <       0.03500006 Ry

     total magnetization       =     8.60 Bohr mag/cell
     absolute magnetization    =     9.79 Bohr mag/cell

     iteration # 40     ecut=   100.00 Ry     beta= 0.40
     Davidson diagonalization with overlap
     ethr =  3.65E-06,  avg # of iterations =  2.2

     total cpu time spent up to now is    18244.7 secs

     total energy              =   -4843.47703965 Ry
     Harris-Foulkes estimate   =   -4843.48477701 Ry
     estimated scf accuracy    <       0.22179045 Ry

     total magnetization       =     8.59 Bohr mag/cell
     absolute magnetization    =     9.79 Bohr mag/cell

     iteration # 41     ecut=   100.00 Ry     beta= 0.40
     Davidson diagonalization with overlap
     ethr =  3.65E-06,  avg # of iterations =  2.0

     total cpu time spent up to now is    18676.8 secs

     total energy              =   -4843.48018030 Ry
     Harris-Foulkes estimate   =   -4843.48189584 Ry
     estimated scf accuracy    <       0.02784356 Ry

     total magnetization       =     8.59 Bohr mag/cell
     absolute magnetization    =     9.77 Bohr mag/cell

     iteration # 42     ecut=   100.00 Ry     beta= 0.40
     Davidson diagonalization with overlap
     ethr =  3.65E-06,  avg # of iterations =  1.4

     total cpu time spent up to now is    19081.6 secs

     total energy              =   -4843.47956951 Ry
     Harris-Foulkes estimate   =   -4843.48257650 Ry
     estimated scf accuracy    <       0.05123951 Ry

     total magnetization       =     8.57 Bohr mag/cell
     absolute magnetization    =     9.75 Bohr mag/cell

     iteration # 43     ecut=   100.00 Ry     beta= 0.40
     Davidson diagonalization with overlap
     ethr =  3.65E-06,  avg # of iterations =  1.1

     total cpu time spent up to now is    19471.0 secs

     total energy              =   -4843.48071572 Ry
     Harris-Foulkes estimate   =   -4843.48180042 Ry
     estimated scf accuracy    <       0.02527358 Ry

     total magnetization       =     8.56 Bohr mag/cell
     absolute magnetization    =     9.73 Bohr mag/cell

     iteration # 44     ecut=   100.00 Ry     beta= 0.40
     Davidson diagonalization with overlap
     ethr =  3.65E-06,  avg # of iterations =  1.0

     total cpu time spent up to now is    19853.3 secs

     total energy              =   -4843.48054694 Ry
     Harris-Foulkes estimate   =   -4843.48187388 Ry
     estimated scf accuracy    <       0.02213624 Ry

     total magnetization       =     8.57 Bohr mag/cell
     absolute magnetization    =     9.73 Bohr mag/cell

     iteration # 45     ecut=   100.00 Ry     beta= 0.40
     Davidson diagonalization with overlap
     ethr =  3.65E-06,  avg # of iterations =  1.0

     total cpu time spent up to now is    20238.5 secs

     total energy              =   -4843.48071626 Ry
     Harris-Foulkes estimate   =   -4843.48179980 Ry
     estimated scf accuracy    <       0.01532013 Ry

     total magnetization       =     8.57 Bohr mag/cell
     absolute magnetization    =     9.73 Bohr mag/cell

     iteration # 46     ecut=   100.00 Ry     beta= 0.40
     Davidson diagonalization with overlap
     ethr =  3.65E-06,  avg # of iterations =  1.0

     total cpu time spent up to now is    20629.5 secs

     total energy              =   -4843.48096250 Ry
     Harris-Foulkes estimate   =   -4843.48181381 Ry
     estimated scf accuracy    <       0.01516061 Ry

     total magnetization       =     8.56 Bohr mag/cell
     absolute magnetization    =     9.71 Bohr mag/cell

     iteration # 47     ecut=   100.00 Ry     beta= 0.40
     Davidson diagonalization with overlap
     ethr =  3.65E-06,  avg # of iterations =  1.0

     total cpu time spent up to now is    21011.9 secs

     total energy              =   -4843.48139579 Ry
     Harris-Foulkes estimate   =   -4843.48160167 Ry
     estimated scf accuracy    <       0.00340056 Ry

     total magnetization       =     8.54 Bohr mag/cell
     absolute magnetization    =     9.68 Bohr mag/cell

     iteration # 48     ecut=   100.00 Ry     beta= 0.40
     Davidson diagonalization with overlap
     ethr =  1.09E-06,  avg # of iterations =  1.0

     total cpu time spent up to now is    21394.6 secs

     total energy              =   -4843.48144647 Ry
     Harris-Foulkes estimate   =   -4843.48161193 Ry
     estimated scf accuracy    <       0.00258968 Ry

     total magnetization       =     8.53 Bohr mag/cell
     absolute magnetization    =     9.66 Bohr mag/cell

     iteration # 49     ecut=   100.00 Ry     beta= 0.40
     Davidson diagonalization with overlap
     ethr =  8.30E-07,  avg # of iterations =  1.0

     total cpu time spent up to now is    21774.6 secs

     total energy              =   -4843.48147372 Ry
     Harris-Foulkes estimate   =   -4843.48169390 Ry
     estimated scf accuracy    <       0.00515325 Ry

     total magnetization       =     8.52 Bohr mag/cell
     absolute magnetization    =     9.65 Bohr mag/cell

     iteration # 50     ecut=   100.00 Ry     beta= 0.40
     Davidson diagonalization with overlap
     ethr =  8.30E-07,  avg # of iterations =  1.0

     total cpu time spent up to now is    22154.8 secs

     total energy              =   -4843.48111084 Ry
     Harris-Foulkes estimate   =   -4843.48198753 Ry
     estimated scf accuracy    <       0.02114462 Ry

     total magnetization       =     8.51 Bohr mag/cell
     absolute magnetization    =     9.62 Bohr mag/cell

     iteration # 51     ecut=   100.00 Ry     beta= 0.40
     Davidson diagonalization with overlap
     ethr =  8.30E-07,  avg # of iterations =  1.0

     total cpu time spent up to now is    22541.0 secs

     total energy              =   -4843.48145115 Ry
     Harris-Foulkes estimate   =   -4843.48178677 Ry
     estimated scf accuracy    <       0.00732490 Ry

     total magnetization       =     8.52 Bohr mag/cell
     absolute magnetization    =     9.65 Bohr mag/cell

     iteration # 52     ecut=   100.00 Ry     beta= 0.40
     Davidson diagonalization with overlap
     ethr =  8.30E-07,  avg # of iterations =  1.0

     total cpu time spent up to now is    22948.7 secs

     total energy              =   -4843.48142291 Ry
     Harris-Foulkes estimate   =   -4843.48177683 Ry
     estimated scf accuracy    <       0.00380957 Ry

     total magnetization       =     8.49 Bohr mag/cell
     absolute magnetization    =     9.60 Bohr mag/cell

     iteration # 53     ecut=   100.00 Ry     beta= 0.40
     Davidson diagonalization with overlap
     ethr =  8.30E-07,  avg # of iterations =  1.0

     total cpu time spent up to now is    23426.3 secs

     total energy              =   -4843.48138909 Ry
     Harris-Foulkes estimate   =   -4843.48186462 Ry
     estimated scf accuracy    <       0.01302616 Ry

     total magnetization       =     8.52 Bohr mag/cell
     absolute magnetization    =     9.63 Bohr mag/cell

     iteration # 54     ecut=   100.00 Ry     beta= 0.40
     Davidson diagonalization with overlap
     ethr =  8.30E-07,  avg # of iterations =  1.0

     total cpu time spent up to now is    23892.0 secs

     total energy              =   -4843.48154711 Ry
     Harris-Foulkes estimate   =   -4843.48177546 Ry
     estimated scf accuracy    <       0.00405229 Ry

     total magnetization       =     8.49 Bohr mag/cell
     absolute magnetization    =     9.60 Bohr mag/cell

     iteration # 55     ecut=   100.00 Ry     beta= 0.40
     Davidson diagonalization with overlap
     ethr =  8.30E-07,  avg # of iterations =  1.0

     total cpu time spent up to now is    24355.2 secs

     total energy              =   -4843.48158030 Ry
     Harris-Foulkes estimate   =   -4843.48182152 Ry
     estimated scf accuracy    <       0.00427780 Ry

     total magnetization       =     8.48 Bohr mag/cell
     absolute magnetization    =     9.59 Bohr mag/cell

     iteration # 56     ecut=   100.00 Ry     beta= 0.40
     Davidson diagonalization with overlap
     ethr =  8.30E-07,  avg # of iterations =  1.0

     total cpu time spent up to now is    24832.2 secs

     total energy              =   -4843.48155559 Ry
     Harris-Foulkes estimate   =   -4843.48179975 Ry
     estimated scf accuracy    <       0.00258556 Ry

     total magnetization       =     8.48 Bohr mag/cell
     absolute magnetization    =     9.57 Bohr mag/cell

     iteration # 57     ecut=   100.00 Ry     beta= 0.40
     Davidson diagonalization with overlap
     ethr =  8.29E-07,  avg # of iterations =  1.0

     total cpu time spent up to now is    25298.3 secs

     total energy              =   -4843.48162653 Ry
     Harris-Foulkes estimate   =   -4843.48175057 Ry
     estimated scf accuracy    <       0.00170183 Ry

     total magnetization       =     8.49 Bohr mag/cell
     absolute magnetization    =     9.59 Bohr mag/cell

     iteration # 58     ecut=   100.00 Ry     beta= 0.40
     Davidson diagonalization with overlap
     ethr =  5.45E-07,  avg # of iterations =  1.0

     total cpu time spent up to now is    25751.0 secs

     total energy              =   -4843.48169436 Ry
     Harris-Foulkes estimate   =   -4843.48174111 Ry
     estimated scf accuracy    <       0.00061967 Ry

     total magnetization       =     8.48 Bohr mag/cell
     absolute magnetization    =     9.57 Bohr mag/cell

     iteration # 59     ecut=   100.00 Ry     beta= 0.40
     Davidson diagonalization with overlap
     ethr =  1.99E-07,  avg # of iterations =  1.0

     total cpu time spent up to now is    26212.0 secs

     total energy              =   -4843.48171459 Ry
     Harris-Foulkes estimate   =   -4843.48174510 Ry
     estimated scf accuracy    <       0.00069248 Ry

     total magnetization       =     8.47 Bohr mag/cell
     absolute magnetization    =     9.56 Bohr mag/cell

     iteration # 60     ecut=   100.00 Ry     beta= 0.40
     Davidson diagonalization with overlap
     ethr =  1.99E-07,  avg # of iterations =  1.0

     total cpu time spent up to now is    26668.0 secs

     total energy              =   -4843.48168347 Ry
     Harris-Foulkes estimate   =   -4843.48178218 Ry
     estimated scf accuracy    <       0.00248255 Ry

     total magnetization       =     8.46 Bohr mag/cell
     absolute magnetization    =     9.55 Bohr mag/cell

     iteration # 61     ecut=   100.00 Ry     beta= 0.40
     Davidson diagonalization with overlap
     ethr =  1.99E-07,  avg # of iterations =  1.0

     total cpu time spent up to now is    27131.1 secs

     total energy              =   -4843.48169852 Ry
     Harris-Foulkes estimate   =   -4843.48178334 Ry
     estimated scf accuracy    <       0.00154329 Ry

     total magnetization       =     8.46 Bohr mag/cell
     absolute magnetization    =     9.55 Bohr mag/cell

     iteration # 62     ecut=   100.00 Ry     beta= 0.40
     Davidson diagonalization with overlap
     ethr =  1.99E-07,  avg # of iterations =  1.0

     total cpu time spent up to now is    27597.6 secs

     total energy              =   -4843.48172476 Ry
     Harris-Foulkes estimate   =   -4843.48175696 Ry
     estimated scf accuracy    <       0.00047036 Ry

     total magnetization       =     8.46 Bohr mag/cell
     absolute magnetization    =     9.54 Bohr mag/cell

     iteration # 63     ecut=   100.00 Ry     beta= 0.40
     Davidson diagonalization with overlap
     ethr =  1.51E-07,  avg # of iterations =  1.0

     total cpu time spent up to now is    28071.0 secs

     total energy              =   -4843.48170343 Ry
     Harris-Foulkes estimate   =   -4843.48179109 Ry
     estimated scf accuracy    <       0.00243362 Ry

     total magnetization       =     8.46 Bohr mag/cell
     absolute magnetization    =     9.53 Bohr mag/cell

     iteration # 64     ecut=   100.00 Ry     beta= 0.40
     Davidson diagonalization with overlap
     ethr =  1.51E-07,  avg # of iterations =  1.0

     total cpu time spent up to now is    28534.9 secs

     total energy              =   -4843.48173083 Ry
     Harris-Foulkes estimate   =   -4843.48177066 Ry
     estimated scf accuracy    <       0.00072135 Ry

     total magnetization       =     8.46 Bohr mag/cell
     absolute magnetization    =     9.54 Bohr mag/cell

     iteration # 65     ecut=   100.00 Ry     beta= 0.40
     Davidson diagonalization with overlap
     ethr =  1.51E-07,  avg # of iterations =  1.0

     total cpu time spent up to now is    29000.8 secs

     total energy              =   -4843.48173162 Ry
     Harris-Foulkes estimate   =   -4843.48178244 Ry
     estimated scf accuracy    <       0.00090408 Ry

     total magnetization       =     8.45 Bohr mag/cell
     absolute magnetization    =     9.53 Bohr mag/cell

     iteration # 66     ecut=   100.00 Ry     beta= 0.40
     Davidson diagonalization with overlap
     ethr =  1.51E-07,  avg # of iterations =  1.0

     total cpu time spent up to now is    29473.4 secs

     total energy              =   -4843.48174921 Ry
     Harris-Foulkes estimate   =   -4843.48177372 Ry
     estimated scf accuracy    <       0.00055315 Ry

     total magnetization       =     8.45 Bohr mag/cell
     absolute magnetization    =     9.52 Bohr mag/cell

     iteration # 67     ecut=   100.00 Ry     beta= 0.40
     Davidson diagonalization with overlap
     ethr =  1.51E-07,  avg # of iterations =  1.0

     total cpu time spent up to now is    29937.3 secs

     total energy              =   -4843.48174693 Ry
     Harris-Foulkes estimate   =   -4843.48178035 Ry
     estimated scf accuracy    <       0.00037165 Ry

     total magnetization       =     8.44 Bohr mag/cell
     absolute magnetization    =     9.51 Bohr mag/cell

     iteration # 68     ecut=   100.00 Ry     beta= 0.40
     Davidson diagonalization with overlap
     ethr =  1.19E-07,  avg # of iterations =  1.0

     total cpu time spent up to now is    30406.8 secs

     total energy              =   -4843.48175042 Ry
     Harris-Foulkes estimate   =   -4843.48177457 Ry
     estimated scf accuracy    <       0.00025543 Ry

     total magnetization       =     8.44 Bohr mag/cell
     absolute magnetization    =     9.51 Bohr mag/cell

     iteration # 69     ecut=   100.00 Ry     beta= 0.40
     Davidson diagonalization with overlap
     ethr =  8.19E-08,  avg # of iterations =  1.0

     total cpu time spent up to now is    30880.1 secs

     total energy              =   -4843.48176215 Ry
     Harris-Foulkes estimate   =   -4843.48177044 Ry
     estimated scf accuracy    <       0.00022004 Ry

     total magnetization       =     8.45 Bohr mag/cell
     absolute magnetization    =     9.52 Bohr mag/cell

     iteration # 70     ecut=   100.00 Ry     beta= 0.40
     Davidson diagonalization with overlap
     ethr =  7.05E-08,  avg # of iterations =  1.0

     total cpu time spent up to now is    31346.7 secs

     total energy              =   -4843.48175632 Ry
     Harris-Foulkes estimate   =   -4843.48177811 Ry
     estimated scf accuracy    <       0.00036249 Ry

     total magnetization       =     8.44 Bohr mag/cell
     absolute magnetization    =     9.51 Bohr mag/cell

     iteration # 71     ecut=   100.00 Ry     beta= 0.40
     Davidson diagonalization with overlap
     ethr =  7.05E-08,  avg # of iterations =  1.0

     total cpu time spent up to now is    31817.2 secs

     total energy              =   -4843.48175001 Ry
     Harris-Foulkes estimate   =   -4843.48178900 Ry
     estimated scf accuracy    <       0.00081668 Ry

     total magnetization       =     8.44 Bohr mag/cell
     absolute magnetization    =     9.51 Bohr mag/cell

     iteration # 72     ecut=   100.00 Ry     beta= 0.40
     Davidson diagonalization with overlap
     ethr =  7.05E-08,  avg # of iterations =  1.0

     total cpu time spent up to now is    32289.3 secs

     total energy              =   -4843.48176425 Ry
     Harris-Foulkes estimate   =   -4843.48177590 Ry
     estimated scf accuracy    <       0.00013596 Ry

     total magnetization       =     8.44 Bohr mag/cell
     absolute magnetization    =     9.50 Bohr mag/cell

     iteration # 73     ecut=   100.00 Ry     beta= 0.40
     Davidson diagonalization with overlap
     ethr =  4.36E-08,  avg # of iterations =  1.0

     total cpu time spent up to now is    32763.0 secs

     total energy              =   -4843.48175690 Ry
     Harris-Foulkes estimate   =   -4843.48178593 Ry
     estimated scf accuracy    <       0.00081492 Ry

     total magnetization       =     8.44 Bohr mag/cell
     absolute magnetization    =     9.50 Bohr mag/cell

     iteration # 74     ecut=   100.00 Ry     beta= 0.40
     Davidson diagonalization with overlap
     ethr =  4.36E-08,  avg # of iterations =  1.0

     total cpu time spent up to now is    33246.9 secs

     total energy              =   -4843.48176986 Ry
     Harris-Foulkes estimate   =   -4843.48177737 Ry
     estimated scf accuracy    <       0.00021270 Ry

     total magnetization       =     8.44 Bohr mag/cell
     absolute magnetization    =     9.50 Bohr mag/cell

     iteration # 75     ecut=   100.00 Ry     beta= 0.40
     Davidson diagonalization with overlap
     ethr =  4.36E-08,  avg # of iterations =  1.0

     total cpu time spent up to now is    33731.6 secs

     total energy              =   -4843.48177023 Ry
     Harris-Foulkes estimate   =   -4843.48177980 Ry
     estimated scf accuracy    <       0.00018163 Ry

     total magnetization       =     8.43 Bohr mag/cell
     absolute magnetization    =     9.49 Bohr mag/cell

     iteration # 76     ecut=   100.00 Ry     beta= 0.40
     Davidson diagonalization with overlap
     ethr =  4.36E-08,  avg # of iterations =  1.0

     total cpu time spent up to now is    34223.3 secs

     total energy              =   -4843.48177120 Ry
     Harris-Foulkes estimate   =   -4843.48177886 Ry
     estimated scf accuracy    <       0.00010637 Ry

     total magnetization       =     8.43 Bohr mag/cell
     absolute magnetization    =     9.49 Bohr mag/cell

     iteration # 77     ecut=   100.00 Ry     beta= 0.40
     Davidson diagonalization with overlap
     ethr =  3.41E-08,  avg # of iterations =  1.0

     total cpu time spent up to now is    34705.3 secs

     total energy              =   -4843.48177232 Ry
     Harris-Foulkes estimate   =   -4843.48177910 Ry
     estimated scf accuracy    <       0.00008710 Ry

     total magnetization       =     8.43 Bohr mag/cell
     absolute magnetization    =     9.49 Bohr mag/cell

     iteration # 78     ecut=   100.00 Ry     beta= 0.40
     Davidson diagonalization with overlap
     ethr =  2.79E-08,  avg # of iterations =  1.0

     total cpu time spent up to now is    35185.1 secs

     total energy              =   -4843.48177442 Ry
     Harris-Foulkes estimate   =   -4843.48177978 Ry
     estimated scf accuracy    <       0.00006778 Ry

     total magnetization       =     8.43 Bohr mag/cell
     absolute magnetization    =     9.49 Bohr mag/cell

     iteration # 79     ecut=   100.00 Ry     beta= 0.40
     Davidson diagonalization with overlap
     ethr =  2.17E-08,  avg # of iterations =  1.0

     total cpu time spent up to now is    35667.3 secs

     total energy              =   -4843.48177610 Ry
     Harris-Foulkes estimate   =   -4843.48177985 Ry
     estimated scf accuracy    <       0.00008435 Ry

     total magnetization       =     8.43 Bohr mag/cell
     absolute magnetization    =     9.49 Bohr mag/cell

     iteration # 80     ecut=   100.00 Ry     beta= 0.40
     Davidson diagonalization with overlap
     ethr =  2.17E-08,  avg # of iterations =  1.0

     total cpu time spent up to now is    36145.7 secs

     total energy              =   -4843.48177738 Ry
     Harris-Foulkes estimate   =   -4843.48178053 Ry
     estimated scf accuracy    <       0.00008153 Ry

     total magnetization       =     8.43 Bohr mag/cell
     absolute magnetization    =     9.48 Bohr mag/cell

     iteration # 81     ecut=   100.00 Ry     beta= 0.40
     Davidson diagonalization with overlap
     ethr =  2.17E-08,  avg # of iterations =  1.0

     total cpu time spent up to now is    36615.8 secs

     total energy              =   -4843.48177457 Ry
     Harris-Foulkes estimate   =   -4843.48178316 Ry
     estimated scf accuracy    <       0.00014358 Ry

     total magnetization       =     8.42 Bohr mag/cell
     absolute magnetization    =     9.48 Bohr mag/cell

     iteration # 82     ecut=   100.00 Ry     beta= 0.40
     Davidson diagonalization with overlap
     ethr =  2.17E-08,  avg # of iterations =  1.0

     total cpu time spent up to now is    37095.8 secs

     total energy              =   -4843.48177788 Ry
     Harris-Foulkes estimate   =   -4843.48178030 Ry
     estimated scf accuracy    <       0.00004559 Ry

     total magnetization       =     8.43 Bohr mag/cell
     absolute magnetization    =     9.48 Bohr mag/cell

     iteration # 83     ecut=   100.00 Ry     beta= 0.40
     Davidson diagonalization with overlap
     ethr =  1.46E-08,  avg # of iterations =  1.0

     total cpu time spent up to now is    37583.7 secs

     total energy              =   -4843.48177442 Ry
     Harris-Foulkes estimate   =   -4843.48178303 Ry
     estimated scf accuracy    <       0.00019333 Ry

     total magnetization       =     8.42 Bohr mag/cell
     absolute magnetization    =     9.48 Bohr mag/cell

     iteration # 84     ecut=   100.00 Ry     beta= 0.40
     Davidson diagonalization with overlap
     ethr =  1.46E-08,  avg # of iterations =  1.0

     total cpu time spent up to now is    38064.5 secs

     total energy              =   -4843.48177758 Ry
     Harris-Foulkes estimate   =   -4843.48178093 Ry
     estimated scf accuracy    <       0.00009792 Ry

     total magnetization       =     8.43 Bohr mag/cell
     absolute magnetization    =     9.48 Bohr mag/cell

     iteration # 85     ecut=   100.00 Ry     beta= 0.40
     Davidson diagonalization with overlap
     ethr =  1.46E-08,  avg # of iterations =  1.0

     total cpu time spent up to now is    38545.0 secs

     total energy              =   -4843.48177836 Ry
     Harris-Foulkes estimate   =   -4843.48178130 Ry
     estimated scf accuracy    <       0.00004785 Ry

     total magnetization       =     8.42 Bohr mag/cell
     absolute magnetization    =     9.48 Bohr mag/cell

     iteration # 86     ecut=   100.00 Ry     beta= 0.40
     Davidson diagonalization with overlap
     ethr =  1.46E-08,  avg # of iterations =  1.0

     total cpu time spent up to now is    39031.9 secs

     total energy              =   -4843.48177983 Ry
     Harris-Foulkes estimate   =   -4843.48178079 Ry
     estimated scf accuracy    <       0.00002841 Ry

     total magnetization       =     8.42 Bohr mag/cell
     absolute magnetization    =     9.48 Bohr mag/cell

     iteration # 87     ecut=   100.00 Ry     beta= 0.40
     Davidson diagonalization with overlap
     ethr =  9.11E-09,  avg # of iterations =  1.0

     total cpu time spent up to now is    39515.6 secs

     total energy              =   -4843.48177969 Ry
     Harris-Foulkes estimate   =   -4843.48178147 Ry
     estimated scf accuracy    <       0.00001992 Ry

     total magnetization       =     8.42 Bohr mag/cell
     absolute magnetization    =     9.47 Bohr mag/cell

     iteration # 88     ecut=   100.00 Ry     beta= 0.40
     Davidson diagonalization with overlap
     ethr =  6.38E-09,  avg # of iterations =  1.0

     total cpu time spent up to now is    39996.0 secs

     total energy              =   -4843.48177920 Ry
     Harris-Foulkes estimate   =   -4843.48178157 Ry
     estimated scf accuracy    <       0.00002257 Ry

     total magnetization       =     8.42 Bohr mag/cell
     absolute magnetization    =     9.47 Bohr mag/cell

     iteration # 89     ecut=   100.00 Ry     beta= 0.40
     Davidson diagonalization with overlap
     ethr =  6.38E-09,  avg # of iterations =  1.0

     total cpu time spent up to now is    40481.5 secs

     total energy              =   -4843.48177974 Ry
     Harris-Foulkes estimate   =   -4843.48178162 Ry
     estimated scf accuracy    <       0.00003633 Ry

     total magnetization       =     8.42 Bohr mag/cell
     absolute magnetization    =     9.47 Bohr mag/cell

     iteration # 90     ecut=   100.00 Ry     beta= 0.40
     Davidson diagonalization with overlap
     ethr =  6.38E-09,  avg # of iterations =  1.0

     total cpu time spent up to now is    40966.7 secs

     total energy              =   -4843.48178057 Ry
     Harris-Foulkes estimate   =   -4843.48178156 Ry
     estimated scf accuracy    <       0.00002277 Ry

     total magnetization       =     8.42 Bohr mag/cell
     absolute magnetization    =     9.47 Bohr mag/cell

     iteration # 91     ecut=   100.00 Ry     beta= 0.40
     Davidson diagonalization with overlap
     ethr =  6.38E-09,  avg # of iterations =  1.0

     total cpu time spent up to now is    41448.5 secs

     total energy              =   -4843.48178020 Ry
     Harris-Foulkes estimate   =   -4843.48178186 Ry
     estimated scf accuracy    <       0.00002738 Ry

     total magnetization       =     8.42 Bohr mag/cell
     absolute magnetization    =     9.47 Bohr mag/cell

     iteration # 92     ecut=   100.00 Ry     beta= 0.40
     Davidson diagonalization with overlap
     ethr =  6.38E-09,  avg # of iterations =  1.0

     total cpu time spent up to now is    41942.4 secs

     total energy              =   -4843.48178078 Ry
     Harris-Foulkes estimate   =   -4843.48178155 Ry
     estimated scf accuracy    <       0.00001329 Ry

     total magnetization       =     8.42 Bohr mag/cell
     absolute magnetization    =     9.47 Bohr mag/cell

     iteration # 93     ecut=   100.00 Ry     beta= 0.40
     Davidson diagonalization with overlap
     ethr =  4.26E-09,  avg # of iterations =  1.0

     total cpu time spent up to now is    42428.8 secs

     total energy              =   -4843.48178029 Ry
     Harris-Foulkes estimate   =   -4843.48178210 Ry
     estimated scf accuracy    <       0.00004339 Ry

     total magnetization       =     8.42 Bohr mag/cell
     absolute magnetization    =     9.47 Bohr mag/cell

     iteration # 94     ecut=   100.00 Ry     beta= 0.40
     Davidson diagonalization with overlap
     ethr =  4.26E-09,  avg # of iterations =  1.0

     total cpu time spent up to now is    42918.1 secs

     total energy              =   -4843.48178069 Ry
     Harris-Foulkes estimate   =   -4843.48178204 Ry
     estimated scf accuracy    <       0.00003503 Ry

     total magnetization       =     8.42 Bohr mag/cell
     absolute magnetization    =     9.47 Bohr mag/cell

     iteration # 95     ecut=   100.00 Ry     beta= 0.40
     Davidson diagonalization with overlap
     ethr =  4.26E-09,  avg # of iterations =  1.0

     total cpu time spent up to now is    43406.2 secs

     total energy              =   -4843.48178109 Ry
     Harris-Foulkes estimate   =   -4843.48178172 Ry
     estimated scf accuracy    <       0.00001187 Ry

     total magnetization       =     8.42 Bohr mag/cell
     absolute magnetization    =     9.47 Bohr mag/cell

     iteration # 96     ecut=   100.00 Ry     beta= 0.40
     Davidson diagonalization with overlap
     ethr =  3.80E-09,  avg # of iterations =  1.0

     total cpu time spent up to now is    43902.3 secs

     total energy              =   -4843.48178126 Ry
     Harris-Foulkes estimate   =   -4843.48178172 Ry
     estimated scf accuracy    <       0.00000773 Ry

     total magnetization       =     8.42 Bohr mag/cell
     absolute magnetization    =     9.47 Bohr mag/cell

     iteration # 97     ecut=   100.00 Ry     beta= 0.40
     Davidson diagonalization with overlap
     ethr =  2.48E-09,  avg # of iterations =  1.0

     total cpu time spent up to now is    44378.5 secs

     total energy              =   -4843.48178147 Ry
     Harris-Foulkes estimate   =   -4843.48178169 Ry
     estimated scf accuracy    <       0.00000463 Ry

     total magnetization       =     8.42 Bohr mag/cell
     absolute magnetization    =     9.47 Bohr mag/cell

     iteration # 98     ecut=   100.00 Ry     beta= 0.40
     Davidson diagonalization with overlap
     ethr =  1.48E-09,  avg # of iterations =  1.0

     total cpu time spent up to now is    44861.2 secs

     total energy              =   -4843.48178152 Ry
     Harris-Foulkes estimate   =   -4843.48178186 Ry
     estimated scf accuracy    <       0.00000515 Ry

     total magnetization       =     8.42 Bohr mag/cell
     absolute magnetization    =     9.46 Bohr mag/cell

     iteration # 99     ecut=   100.00 Ry     beta= 0.40
     Davidson diagonalization with overlap
     ethr =  1.48E-09,  avg # of iterations =  1.0

     total cpu time spent up to now is    45359.0 secs

     total energy              =   -4843.48178138 Ry
     Harris-Foulkes estimate   =   -4843.48178198 Ry
     estimated scf accuracy    <       0.00000935 Ry

     total magnetization       =     8.42 Bohr mag/cell
     absolute magnetization    =     9.46 Bohr mag/cell

     iteration #100     ecut=   100.00 Ry     beta= 0.40
     Davidson diagonalization with overlap
     ethr =  1.48E-09,  avg # of iterations =  1.0
 
     Magnetic moment per site:
     atom:    1    charge:    7.2646    magn:   -0.0233    constr:    0.0000
     atom:    2    charge:    7.3090    magn:   -0.0170    constr:    0.0000
     atom:    3    charge:    7.2971    magn:   -0.0176    constr:    0.0000
     atom:    4    charge:    7.2611    magn:   -0.0230    constr:    0.0000
     atom:    5    charge:    5.4528    magn:    0.0385    constr:    0.0000
     atom:    6    charge:    5.4491    magn:    0.0440    constr:    0.0000
     atom:    7    charge:    5.4799    magn:    0.0499    constr:    0.0000
     atom:    8    charge:    5.4358    magn:    0.0351    constr:    0.0000
     atom:    9    charge:    5.4402    magn:    0.0485    constr:    0.0000
     atom:   10    charge:    5.4624    magn:    0.0395    constr:    0.0000
     atom:   11    charge:    5.4821    magn:    0.0496    constr:    0.0000
     atom:   12    charge:    5.4352    magn:    0.0376    constr:    0.0000
     atom:   13    charge:   15.4984    magn:    0.8231    constr:    0.0000
     atom:   14    charge:   15.4984    magn:    0.7669    constr:    0.0000
     atom:   15    charge:   15.5295    magn:    0.6227    constr:    0.0000
     atom:   16    charge:   15.6394    magn:    0.4296    constr:    0.0000
     atom:   17    charge:   15.5122    magn:    0.8645    constr:    0.0000
     atom:   18    charge:   15.5803    magn:    0.6752    constr:    0.0000
     atom:   19    charge:   15.5199    magn:    0.8338    constr:    0.0000
     atom:   20    charge:   15.6569    magn:    0.3853    constr:    0.0000
     atom:   21    charge:   15.5801    magn:    0.6836    constr:    0.0000
     atom:   22    charge:   15.5550    magn:    0.6317    constr:    0.0000
     atom:   23    charge:   15.4903    magn:    0.7952    constr:    0.0000
     atom:   24    charge:   15.4778    magn:    0.8250    constr:    0.0000

     total cpu time spent up to now is    45834.0 secs

     total energy              =   -4843.48178160 Ry
     Harris-Foulkes estimate   =   -4843.48178189 Ry
     estimated scf accuracy    <       0.00000742 Ry

     total magnetization       =     8.42 Bohr mag/cell
     absolute magnetization    =     9.46 Bohr mag/cell

     iteration #101     ecut=   100.00 Ry     beta= 0.40
     Davidson diagonalization with overlap
     ethr =  1.48E-09,  avg # of iterations =  1.0

     total cpu time spent up to now is    46328.5 secs

     total energy              =   -4843.48178154 Ry
     Harris-Foulkes estimate   =   -4843.48178193 Ry
     estimated scf accuracy    <       0.00000553 Ry

     total magnetization       =     8.42 Bohr mag/cell
     absolute magnetization    =     9.46 Bohr mag/cell

     iteration #102     ecut=   100.00 Ry     beta= 0.40
     Davidson diagonalization with overlap
     ethr =  1.48E-09,  avg # of iterations =  1.0

     total cpu time spent up to now is    46821.0 secs

     total energy              =   -4843.48178163 Ry
     Harris-Foulkes estimate   =   -4843.48178194 Ry
     estimated scf accuracy    <       0.00000565 Ry

     total magnetization       =     8.42 Bohr mag/cell
     absolute magnetization    =     9.46 Bohr mag/cell

     iteration #103     ecut=   100.00 Ry     beta= 0.40
     Davidson diagonalization with overlap
     ethr =  1.48E-09,  avg # of iterations =  1.0

     total cpu time spent up to now is    47312.2 secs

     total energy              =   -4843.48178155 Ry
     Harris-Foulkes estimate   =   -4843.48178202 Ry
     estimated scf accuracy    <       0.00000932 Ry

     total magnetization       =     8.42 Bohr mag/cell
     absolute magnetization    =     9.46 Bohr mag/cell

     iteration #104     ecut=   100.00 Ry     beta= 0.40
     Davidson diagonalization with overlap
     ethr =  1.48E-09,  avg # of iterations =  1.0

     total cpu time spent up to now is    47795.6 secs

     total energy              =   -4843.48178148 Ry
     Harris-Foulkes estimate   =   -4843.48178218 Ry
     estimated scf accuracy    <       0.00001751 Ry

     total magnetization       =     8.42 Bohr mag/cell
     absolute magnetization    =     9.46 Bohr mag/cell

     iteration #105     ecut=   100.00 Ry     beta= 0.40
     Davidson diagonalization with overlap
     ethr =  1.48E-09,  avg # of iterations =  1.0

     total cpu time spent up to now is    48279.0 secs

     total energy              =   -4843.48178173 Ry
     Harris-Foulkes estimate   =   -4843.48178196 Ry
     estimated scf accuracy    <       0.00000365 Ry

     total magnetization       =     8.42 Bohr mag/cell
     absolute magnetization    =     9.46 Bohr mag/cell

     iteration #106     ecut=   100.00 Ry     beta= 0.40
     Davidson diagonalization with overlap
     ethr =  1.17E-09,  avg # of iterations =  1.0

     total cpu time spent up to now is    48764.6 secs

     total energy              =   -4843.48178179 Ry
     Harris-Foulkes estimate   =   -4843.48178195 Ry
     estimated scf accuracy    <       0.00000314 Ry

     total magnetization       =     8.42 Bohr mag/cell
     absolute magnetization    =     9.46 Bohr mag/cell

     iteration #107     ecut=   100.00 Ry     beta= 0.40
     Davidson diagonalization with overlap
     ethr =  1.01E-09,  avg # of iterations =  1.0

     total cpu time spent up to now is    49240.5 secs

     total energy              =   -4843.48178185 Ry
     Harris-Foulkes estimate   =   -4843.48178194 Ry
     estimated scf accuracy    <       0.00000128 Ry

     total magnetization       =     8.41 Bohr mag/cell
     absolute magnetization    =     9.46 Bohr mag/cell

     iteration #108     ecut=   100.00 Ry     beta= 0.40
     Davidson diagonalization with overlap
     ethr =  4.11E-10,  avg # of iterations =  1.0

     total cpu time spent up to now is    49734.1 secs

     total energy              =   -4843.48178187 Ry
     Harris-Foulkes estimate   =   -4843.48178196 Ry
     estimated scf accuracy    <       0.00000118 Ry

     total magnetization       =     8.41 Bohr mag/cell
     absolute magnetization    =     9.46 Bohr mag/cell

     iteration #109     ecut=   100.00 Ry     beta= 0.40
     Davidson diagonalization with overlap
     ethr =  3.78E-10,  avg # of iterations =  1.0

     total cpu time spent up to now is    50204.1 secs

     total energy              =   -4843.48178187 Ry
     Harris-Foulkes estimate   =   -4843.48178199 Ry
     estimated scf accuracy    <       0.00000184 Ry

     total magnetization       =     8.41 Bohr mag/cell
     absolute magnetization    =     9.46 Bohr mag/cell

     iteration #110     ecut=   100.00 Ry     beta= 0.40
     Davidson diagonalization with overlap
     ethr =  3.78E-10,  avg # of iterations =  1.0

     total cpu time spent up to now is    50674.5 secs

     total energy              =   -4843.48178189 Ry
     Harris-Foulkes estimate   =   -4843.48178200 Ry
     estimated scf accuracy    <       0.00000234 Ry

     total magnetization       =     8.41 Bohr mag/cell
     absolute magnetization    =     9.46 Bohr mag/cell

     iteration #111     ecut=   100.00 Ry     beta= 0.40
     Davidson diagonalization with overlap
     ethr =  3.78E-10,  avg # of iterations =  1.0

     total cpu time spent up to now is    51134.0 secs

     total energy              =   -4843.48178192 Ry
     Harris-Foulkes estimate   =   -4843.48178198 Ry
     estimated scf accuracy    <       0.00000123 Ry

     total magnetization       =     8.41 Bohr mag/cell
     absolute magnetization    =     9.46 Bohr mag/cell

     iteration #112     ecut=   100.00 Ry     beta= 0.40
     Davidson diagonalization with overlap
     ethr =  3.78E-10,  avg # of iterations =  1.0

     total cpu time spent up to now is    51609.0 secs

     total energy              =   -4843.48178192 Ry
     Harris-Foulkes estimate   =   -4843.48178202 Ry
     estimated scf accuracy    <       0.00000160 Ry

     total magnetization       =     8.41 Bohr mag/cell
     absolute magnetization    =     9.46 Bohr mag/cell

     iteration #113     ecut=   100.00 Ry     beta= 0.40
     Davidson diagonalization with overlap
     ethr =  3.78E-10,  avg # of iterations =  1.0

     total cpu time spent up to now is    52087.0 secs

     total energy              =   -4843.48178194 Ry
     Harris-Foulkes estimate   =   -4843.48178202 Ry
     estimated scf accuracy    <       0.00000233 Ry

     total magnetization       =     8.41 Bohr mag/cell
     absolute magnetization    =     9.46 Bohr mag/cell

     iteration #114     ecut=   100.00 Ry     beta= 0.40
     Davidson diagonalization with overlap
     ethr =  3.78E-10,  avg # of iterations =  1.0

     total cpu time spent up to now is    52545.5 secs

     total energy              =   -4843.48178189 Ry
     Harris-Foulkes estimate   =   -4843.48178206 Ry
     estimated scf accuracy    <       0.00000336 Ry

     total magnetization       =     8.41 Bohr mag/cell
     absolute magnetization    =     9.46 Bohr mag/cell

     iteration #115     ecut=   100.00 Ry     beta= 0.40
     Davidson diagonalization with overlap
     ethr =  3.78E-10,  avg # of iterations =  1.0

     total cpu time spent up to now is    53009.3 secs

     total energy              =   -4843.48178195 Ry
     Harris-Foulkes estimate   =   -4843.48178200 Ry
     estimated scf accuracy    <       0.00000118 Ry

     total magnetization       =     8.41 Bohr mag/cell
     absolute magnetization    =     9.46 Bohr mag/cell

     iteration #116     ecut=   100.00 Ry     beta= 0.40
     Davidson diagonalization with overlap
     ethr =  3.78E-10,  avg # of iterations =  1.0

     total cpu time spent up to now is    53466.2 secs

     total energy              =   -4843.48178195 Ry
     Harris-Foulkes estimate   =   -4843.48178202 Ry
     estimated scf accuracy    <       0.00000111 Ry

     total magnetization       =     8.41 Bohr mag/cell
     absolute magnetization    =     9.46 Bohr mag/cell

     iteration #117     ecut=   100.00 Ry     beta= 0.40
     Davidson diagonalization with overlap
     ethr =  3.57E-10,  avg # of iterations =  1.0
 
     Magnetic moment per site:
     atom:    1    charge:    7.2646    magn:   -0.0233    constr:    0.0000
     atom:    2    charge:    7.3090    magn:   -0.0169    constr:    0.0000
     atom:    3    charge:    7.2971    magn:   -0.0176    constr:    0.0000
     atom:    4    charge:    7.2611    magn:   -0.0229    constr:    0.0000
     atom:    5    charge:    5.4528    magn:    0.0385    constr:    0.0000
     atom:    6    charge:    5.4491    magn:    0.0439    constr:    0.0000
     atom:    7    charge:    5.4799    magn:    0.0499    constr:    0.0000
     atom:    8    charge:    5.4358    magn:    0.0351    constr:    0.0000
     atom:    9    charge:    5.4402    magn:    0.0485    constr:    0.0000
     atom:   10    charge:    5.4624    magn:    0.0394    constr:    0.0000
     atom:   11    charge:    5.4821    magn:    0.0495    constr:    0.0000
     atom:   12    charge:    5.4352    magn:    0.0375    constr:    0.0000
     atom:   13    charge:   15.4983    magn:    0.8227    constr:    0.0000
     atom:   14    charge:   15.4987    magn:    0.7658    constr:    0.0000
     atom:   15    charge:   15.5294    magn:    0.6213    constr:    0.0000
     atom:   16    charge:   15.6396    magn:    0.4289    constr:    0.0000
     atom:   17    charge:   15.5121    magn:    0.8641    constr:    0.0000
     atom:   18    charge:   15.5804    magn:    0.6748    constr:    0.0000
     atom:   19    charge:   15.5196    magn:    0.8334    constr:    0.0000
     atom:   20    charge:   15.6569    magn:    0.3846    constr:    0.0000
     atom:   21    charge:   15.5800    magn:    0.6834    constr:    0.0000
     atom:   22    charge:   15.5550    magn:    0.6304    constr:    0.0000
     atom:   23    charge:   15.4905    magn:    0.7942    constr:    0.0000
     atom:   24    charge:   15.4779    magn:    0.8240    constr:    0.0000

     total cpu time spent up to now is    53924.6 secs

     End of self-consistent calculation

 ------ SPIN UP ------------


          k = 0.0000 0.0000 0.0000 ( 30953 PWs)   bands (ev):

   -88.7355 -88.6723 -88.6440 -88.6324 -88.5911 -88.5659 -88.5304 -88.4893
   -88.4695 -88.4622 -88.4188 -88.4164 -49.3879 -49.3583 -49.3015 -49.2929
   -49.2684 -49.2623 -49.2468 -49.2371 -49.2272 -49.2127 -49.2057 -49.1881
   -49.1776 -49.1659 -49.1599 -49.1414 -49.1250 -49.1167 -49.1032 -49.0882
   -49.0748 -49.0664 -49.0582 -49.0559 -49.0253 -49.0144 -48.9882 -48.9473
   -48.9434 -48.9329 -48.9065 -48.8986 -48.8660 -48.8347 -48.8290 -48.7985
   -33.9710 -33.9339 -33.9212 -33.9051 -12.4914 -12.4634 -12.4180 -12.2723
   -12.2522 -12.0706 -12.0547 -12.0292 -11.9907 -11.9389 -11.8991 -11.8506
    -4.0004  -3.4570  -3.4203  -3.3035  -2.6252  -2.5887  -2.4035  -2.2281
     6.9962   7.9292   8.0555   8.3273   8.5775   8.8481   9.0013   9.2524
     9.2903   9.3178   9.5397   9.5965  10.0161  10.1676  10.2022  10.2118
    10.3222  10.3706  10.5755  10.6059  10.6563  10.7482  10.8184  10.8241
    10.9185  11.0534  11.0762  11.1320  11.1406  11.2164  11.2524  11.3169
    11.3645  11.4087  11.4511  11.5196  11.5473  11.5746  11.6493  11.6994
    11.7699  11.8516  11.8764  11.9632  12.1159  12.3346  12.3656  12.4954
    12.5060  12.5959  12.6756  12.6909  12.7245  12.8383  12.8557  12.8988
    12.9718  12.9899  13.0626  13.1802  13.1961  13.2490  13.2778  13.3251
    13.3717  13.3988  13.4570  13.5482  13.5826  13.6400  13.6697  13.7048
    13.7146  13.7922  13.8307  13.8440  13.8911  13.9261  13.9286  13.9759
    14.0408  14.0494  14.0641  14.2115  14.2717  14.3794  14.4277  15.2479
    15.7895  16.1347  16.2119  16.3357  16.4863  16.8916  17.5259  17.5389
    17.5598  17.6692  17.9134  18.2511  18.2578  18.3016  18.8065  18.9016
    19.6079  19.8546  20.1633  20.3368  20.4572  20.8870  21.4769  21.5974
    21.6961  21.7486  22.0929

     occupation numbers 
     1.0000   1.0000   1.0000   1.0000   1.0000   1.0000   1.0000   1.0000
     1.0000   1.0000   1.0000   1.0000   1.0000   1.0000   1.0000   1.0000
     1.0000   1.0000   1.0000   1.0000   1.0000   1.0000   1.0000   1.0000
     1.0000   1.0000   1.0000   1.0000   1.0000   1.0000   1.0000   1.0000
     1.0000   1.0000   1.0000   1.0000   1.0000   1.0000   1.0000   1.0000
     1.0000   1.0000   1.0000   1.0000   1.0000   1.0000   1.0000   1.0000
     1.0000   1.0000   1.0000   1.0000   1.0000   1.0000   1.0000   1.0000
     1.0000   1.0000   1.0000   1.0000   1.0000   1.0000   1.0000   1.0000
     1.0000   1.0000   1.0000   1.0000   1.0000   1.0000   1.0000   1.0000
     1.0000   1.0000   1.0000   1.0000   1.0000   1.0000   1.0000   1.0000
     1.0000   1.0000   1.0000   1.0000   1.0000   1.0000   1.0000   1.0000
     1.0000   1.0000   1.0000   1.0000   1.0000   1.0000   1.0000   1.0000
     1.0000   1.0000   1.0000   1.0000   1.0000   1.0000   1.0000   1.0000
     1.0000   1.0000   1.0000   1.0000   1.0000   1.0000   1.0000   1.0000
     1.0000   1.0000   1.0000   1.0000   1.0000   1.0000   1.0000   1.0000
     1.0000   1.0000   1.0000   1.0000   1.0000   1.0000   1.0000   1.0000
     1.0000   1.0000   1.0000   1.0000   1.0000   1.0000   1.0000   1.0000
     1.0000   1.0000   1.0000   1.0000   1.0000   1.0000   1.0000   1.0000
     1.0000   1.0000   1.0000   1.0000   1.0000   1.0000   1.0000   1.0000
     1.0001   1.0002   1.0003   1.0069   1.0183   1.0615   1.0800   0.0000
     0.0000   0.0000   0.0000   0.0000   0.0000   0.0000   0.0000   0.0000
     0.0000   0.0000   0.0000   0.0000   0.0000   0.0000   0.0000   0.0000
     0.0000   0.0000   0.0000   0.0000   0.0000   0.0000   0.0000   0.0000
     0.0000   0.0000   0.0000

          k = 0.0000 0.0000-0.6761 ( 30946 PWs)   bands (ev):

   -88.7355 -88.6723 -88.6440 -88.6324 -88.5911 -88.5659 -88.5304 -88.4893
   -88.4695 -88.4622 -88.4188 -88.4164 -49.3879 -49.3583 -49.3015 -49.2929
   -49.2684 -49.2623 -49.2468 -49.2371 -49.2272 -49.2127 -49.2057 -49.1881
   -49.1776 -49.1659 -49.1599 -49.1414 -49.1250 -49.1167 -49.1032 -49.0882
   -49.0748 -49.0664 -49.0582 -49.0559 -49.0253 -49.0144 -48.9882 -48.9473
   -48.9434 -48.9329 -48.9065 -48.8986 -48.8660 -48.8347 -48.8290 -48.7985
   -33.9710 -33.9339 -33.9212 -33.9052 -12.4916 -12.4634 -12.4184 -12.2719
   -12.2527 -12.0703 -12.0547 -12.0293 -11.9907 -11.9389 -11.8991 -11.8506
    -3.9942  -3.4558  -3.4205  -3.3059  -2.6253  -2.5882  -2.4033  -2.2290
     6.8847   8.2205   8.3284   8.3562   8.5563   8.7070   8.9089   9.0010
     9.1357   9.2727   9.2904   9.3288   9.9987  10.2537  10.3140  10.3954
    10.5399  10.5887  10.6278  10.6343  10.6953  10.7531  10.7902  10.8204
    10.8869  10.9578  11.0411  11.1052  11.1156  11.2002  11.2323  11.2619
    11.2818  11.3029  11.3356  11.3624  11.5101  11.6124  11.6442  11.7518
    11.9491  12.0175  12.0921  12.1077  12.1661  12.3151  12.3609  12.4702
    12.5751  12.5936  12.6633  12.8146  12.8299  12.8542  12.9033  12.9703
    13.0384  13.0695  13.1030  13.1346  13.2019  13.2173  13.3001  13.3500
    13.3895  13.3971  13.4957  13.5212  13.5437  13.6130  13.6359  13.6934
    13.7095  13.7492  13.7810  13.7873  13.8178  13.8616  13.8753  13.9026
    13.9491  13.9692  14.0541  14.3723  14.4112  14.4282  14.5080  14.7779
    15.3757  15.5946  16.1976  16.2832  17.1878  17.4370  17.5261  17.6249
    17.6506  17.6978  17.8222  17.8804  18.5041  18.6801  18.9323  19.1483
    19.4751  19.8715  19.8896  20.3633  20.5170  21.0203  21.2663  21.5556
    21.6225  21.7030  21.7846

     occupation numbers 
     1.0000   1.0000   1.0000   1.0000   1.0000   1.0000   1.0000   1.0000
     1.0000   1.0000   1.0000   1.0000   1.0000   1.0000   1.0000   1.0000
     1.0000   1.0000   1.0000   1.0000   1.0000   1.0000   1.0000   1.0000
     1.0000   1.0000   1.0000   1.0000   1.0000   1.0000   1.0000   1.0000
     1.0000   1.0000   1.0000   1.0000   1.0000   1.0000   1.0000   1.0000
     1.0000   1.0000   1.0000   1.0000   1.0000   1.0000   1.0000   1.0000
     1.0000   1.0000   1.0000   1.0000   1.0000   1.0000   1.0000   1.0000
     1.0000   1.0000   1.0000   1.0000   1.0000   1.0000   1.0000   1.0000
     1.0000   1.0000   1.0000   1.0000   1.0000   1.0000   1.0000   1.0000
     1.0000   1.0000   1.0000   1.0000   1.0000   1.0000   1.0000   1.0000
     1.0000   1.0000   1.0000   1.0000   1.0000   1.0000   1.0000   1.0000
     1.0000   1.0000   1.0000   1.0000   1.0000   1.0000   1.0000   1.0000
     1.0000   1.0000   1.0000   1.0000   1.0000   1.0000   1.0000   1.0000
     1.0000   1.0000   1.0000   1.0000   1.0000   1.0000   1.0000   1.0000
     1.0000   1.0000   1.0000   1.0000   1.0000   1.0000   1.0000   1.0000
     1.0000   1.0000   1.0000   1.0000   1.0000   1.0000   1.0000   1.0000
     1.0000   1.0000   1.0000   1.0000   1.0000   1.0000   1.0000   1.0000
     1.0000   1.0000   1.0000   1.0000   1.0000   1.0000   1.0000   1.0000
     1.0000   1.0000   1.0000   1.0000   1.0000   1.0000   1.0000   1.0000
     1.0000   1.0000   1.0002   1.0582   1.0749   1.0801   1.0602   0.2684
     0.0000   0.0000   0.0000   0.0000   0.0000   0.0000   0.0000   0.0000
     0.0000   0.0000   0.0000   0.0000   0.0000   0.0000   0.0000   0.0000
     0.0000   0.0000   0.0000   0.0000   0.0000   0.0000   0.0000   0.0000
     0.0000   0.0000   0.0000

[...]

     one-electron contribution =   -3678.83313725 Ry
     hartree contribution      =    2021.37321769 Ry
     xc contribution           =    -552.61321834 Ry
     ewald contribution        =   -2560.53629313 Ry
     one-center paw contrib.   =     -72.87463690 Ry
      -> PAW hartree energy AE =       0.00000000 Ry
      -> PAW hartree energy PS =       0.00000000 Ry
      -> PAW xc energy AE      =       0.00000000 Ry
      -> PAW xc energy PS      =       0.00000000 Ry
      -> total E_H with PAW    =    2021.37321769 Ry
      -> total E_XC with PAW   =    -552.61321834 Ry
     smearing contrib. (-TS)   =       0.00228624 Ry

     total magnetization       =     8.41 Bohr mag/cell
     absolute magnetization    =     9.46 Bohr mag/cell

     convergence has been achieved in 117 iterations

     Forces acting on atoms (cartesian axes, Ry/au):

     atom    1 type  3   force =     0.02286693   -0.00285594    0.20835765
     atom    2 type  3   force =    -0.01826673   -0.00647811    0.24626186
     atom    3 type  3   force =     0.02561551    0.00252750   -0.23022715
     atom    4 type  3   force =    -0.02176810    0.00447945   -0.18967192
     atom    5 type  2   force =    -0.01426633    0.00015593    0.03129307
     atom    6 type  2   force =     0.03034596   -0.00148057    0.05494879
     atom    7 type  2   force =    -0.01001059    0.00024113    0.04597120
     atom    8 type  2   force =     0.00415029   -0.00178286    0.02102400
     atom    9 type  2   force =    -0.02791662   -0.00029891   -0.04828588
     atom   10 type  2   force =     0.01444258    0.00126831   -0.03455926
     atom   11 type  2   force =     0.00309613    0.00163149   -0.04469022
     atom   12 type  2   force =    -0.00057564   -0.00100885   -0.02012210
     atom   13 type  1   force =     0.04404647   -0.02457071   -0.06873827
     atom   14 type  1   force =     0.01320166   -0.01486060   -0.01060301
     atom   15 type  1   force =    -0.02958366   -0.01502370   -0.00247680
     atom   16 type  1   force =    -0.03389897    0.01552657    0.18505480
     atom   17 type  1   force =    -0.00233948    0.01338072    0.02949137
     atom   18 type  1   force =    -0.00638419    0.02150884    0.07556033
     atom   19 type  1   force =     0.01463803   -0.01087145   -0.03342150
     atom   20 type  1   force =     0.02472049   -0.00989789   -0.21283105
     atom   21 type  1   force =    -0.07078202   -0.01824411   -0.07840130
     atom   22 type  1   force =     0.05673625    0.02163730    0.01390029
     atom   23 type  1   force =    -0.00496122    0.01149808    0.01820981
     atom   24 type  1   force =    -0.01310673    0.01351837    0.04395529
     The non-local contrib.  to forces
     atom    1 type  3   force =    -0.00605474    0.00082995    0.00160487
     atom    2 type  3   force =     0.02159549    0.00380112   -0.13153140
     atom    3 type  3   force =    -0.02569757    0.00002850    0.09843155
     atom    4 type  3   force =     0.00787753   -0.00036593    0.00660780
     atom    5 type  2   force =     0.11535558    0.00874234    0.02667914
     atom    6 type  2   force =     0.41868413    0.00351632    0.22836145
     atom    7 type  2   force =    -0.27836002    0.01704828    0.32563364
     atom    8 type  2   force =    -0.20711508   -0.00256717   -0.07400501
     atom    9 type  2   force =    -0.40826842   -0.01102187   -0.13914773
     atom   10 type  2   force =    -0.10141484    0.00284207   -0.08824495
     atom   11 type  2   force =     0.21983372    0.00679625   -0.29587448
     atom   12 type  2   force =     0.26616797   -0.01587914    0.07383643
     atom   13 type  1   force =    -0.08506507    0.00456790   -0.12309863
     atom   14 type  1   force =    -0.00052712   -0.00435082   -0.03023549
     atom   15 type  1   force =     0.10741994   -0.00537912   -0.31905747
     atom   16 type  1   force =     0.21434629    0.02633075   -1.57950419
     atom   17 type  1   force =     0.01137450    0.01590588   -0.51288196
     atom   18 type  1   force =    -0.17209002    0.01186045   -0.84067931
     atom   19 type  1   force =    -0.04455288   -0.02140728    0.53729480
     atom   20 type  1   force =    -0.15612358   -0.05681061    1.76840228
     atom   21 type  1   force =     0.13625688   -0.02362098    0.82921823
     atom   22 type  1   force =    -0.06503521    0.01655314    0.38060194
     atom   23 type  1   force =    -0.05159151    0.01527913   -0.00589708
     atom   24 type  1   force =     0.09970047    0.01124701    0.08469867
     The ionic contribution  to forces
     atom    1 type  3   force =     2.65586979   -0.43028161   35.39034921
     atom    2 type  3   force =    -2.18646827   -0.61312099   37.23269917
     atom    3 type  3   force =     4.54013691    0.38865785  -36.56959307
     atom    4 type  3   force =    -4.52351047    0.52467253  -33.46545122
     atom    5 type  2   force =    -0.54756199   -0.22487759  -15.44667628
     atom    6 type  2   force =    -5.32384808   -0.25303136  -15.62645876
     atom    7 type  2   force =     3.84107382   -0.32162030  -17.12030117
     atom    8 type  2   force =     1.87994320   -0.20425049  -15.49101872
     atom    9 type  2   force =     5.63507019    0.24345361   15.43347717
     atom   10 type  2   force =     0.86344688    0.21473325   15.61263807
     atom   11 type  2   force =    -2.34436123    0.17029832   17.10498586
     atom   12 type  2   force =    -4.30476651    0.27987702   15.47930692
     atom   13 type  1   force =     8.78626738   -4.00426452  -64.47143169
     atom   14 type  1   force =     6.14964658   -3.54942887  -51.89978218
     atom   15 type  1   force =    -8.99780122   -3.77854757  -50.47576286
     atom   16 type  1   force =     1.93791692    3.61797024  -46.93797319
     atom   17 type  1   force =    -4.69144085    3.60805124  -61.54005913
     atom   18 type  1   force =    -3.38398497    4.19500137  -59.91493473
     atom   19 type  1   force =    11.31319794   -3.76260652   61.34901762
     atom   20 type  1   force =     1.38374979   -3.30974652   44.20382227
     atom   21 type  1   force =   -17.30323560   -4.21195661   59.96251168
     atom   22 type  1   force =    11.22831882    4.19502507   55.17013130
     atom   23 type  1   force =    -2.20493196    3.60801378   53.29521195
     atom   24 type  1   force =    -4.40272707    3.61797869   58.72529179
     The local contribution  to forces
     atom    1 type  3   force =    -2.62800706    0.42669998  -35.18251802
     atom    2 type  3   force =     2.14811384    0.60311392  -36.86109420
     atom    3 type  3   force =    -4.49071766   -0.38625214   36.24599471
     atom    4 type  3   force =     4.49502829   -0.51997907   33.26847917
     atom    5 type  2   force =     0.41849609    0.21638168   15.45285592
     atom    6 type  2   force =     4.93897297    0.24806416   15.45681275
     atom    7 type  2   force =    -3.57481018    0.30499318   16.84541257
     atom    8 type  2   force =    -1.67001647    0.20499493   15.58639775
     atom    9 type  2   force =    -5.25819093   -0.23285264  -15.34530073
     atom   10 type  2   force =    -0.74790538   -0.21626984  -15.56100286
     atom   11 type  2   force =     2.12918426   -0.17537991  -16.85788090
     atom   12 type  2   force =     4.03992946   -0.26518771  -15.57357829
     atom   13 type  1   force =    -8.65808006    3.97581397   64.52940523
     atom   14 type  1   force =    -6.13588867    3.53941698   51.92252470
     atom   15 type  1   force =     8.86267601    3.76949333   50.79259775
     atom   16 type  1   force =    -2.18198823   -3.62876039   48.68585099
     atom   17 type  1   force =     4.67742421   -3.61076043   62.08086985
     atom   18 type  1   force =     3.54648343   -4.18548244   60.82292701
     atom   19 type  1   force =   -11.25423583    3.77296133  -61.91788305
     atom   20 type  1   force =    -1.20547885    3.35603094  -46.16708574
     atom   21 type  1   force =    17.09933011    4.21696775  -60.86222083
     atom   22 type  1   force =   -11.10815280   -4.18988863  -55.53653382
     atom   23 type  1   force =     2.25107828   -3.61196213  -53.27557247
     atom   24 type  1   force =     4.29038064   -3.61595511  -58.77022763
     The core correction contribution to forces
     atom    1 type  3   force =     0.00096958   -0.00011064   -0.00081620
     atom    2 type  3   force =    -0.00160621   -0.00027544    0.00617396
     atom    3 type  3   force =     0.00213396    0.00008765   -0.00456984
     atom    4 type  3   force =    -0.00119558    0.00015259    0.00061077
     atom    5 type  2   force =    -0.00037268   -0.00009464   -0.00143623
     atom    6 type  2   force =    -0.00360214   -0.00003423   -0.00384858
     atom    7 type  2   force =     0.00203724   -0.00017859   -0.00448848
     atom    8 type  2   force =     0.00134047    0.00003525   -0.00035805
     atom    9 type  2   force =     0.00352817    0.00012381    0.00289340
     atom   10 type  2   force =     0.00023891   -0.00003951    0.00201465
     atom   11 type  2   force =    -0.00146212   -0.00008472    0.00408123
     atom   12 type  2   force =    -0.00198441    0.00017941    0.00036861
     atom   13 type  1   force =     0.00115730   -0.00067046   -0.00401651
     atom   14 type  1   force =    -0.00015879   -0.00048846   -0.00325522
     atom   15 type  1   force =    -0.00199128   -0.00058582   -0.00015960
     atom   16 type  1   force =    -0.00326266   -0.00000133    0.01621023
     atom   17 type  1   force =    -0.00061936    0.00017613    0.00172948
     atom   18 type  1   force =     0.00321376    0.00014824    0.00820854
     atom   19 type  1   force =     0.00105393    0.00020018   -0.00237147
     atom   20 type  1   force =     0.00203210    0.00063220   -0.01790037
     atom   21 type  1   force =    -0.00344875    0.00038005   -0.00774954
     atom   22 type  1   force =     0.00139746   -0.00002069   -0.00044286
     atom   23 type  1   force =     0.00091122    0.00016831    0.00394711
     atom   24 type  1   force =    -0.00068953    0.00026109    0.00450727
     The Hubbard contrib.    to forces
     atom    1 type  3   force =     0.00000000    0.00000000    0.00000000
     atom    2 type  3   force =     0.00000000    0.00000000    0.00000000
     atom    3 type  3   force =     0.00000000    0.00000000    0.00000000
     atom    4 type  3   force =     0.00000000    0.00000000    0.00000000
     atom    5 type  2   force =     0.00000000    0.00000000    0.00000000
     atom    6 type  2   force =     0.00000000    0.00000000    0.00000000
     atom    7 type  2   force =     0.00000000    0.00000000    0.00000000
     atom    8 type  2   force =     0.00000000    0.00000000    0.00000000
     atom    9 type  2   force =     0.00000000    0.00000000    0.00000000
     atom   10 type  2   force =     0.00000000    0.00000000    0.00000000
     atom   11 type  2   force =     0.00000000    0.00000000    0.00000000
     atom   12 type  2   force =     0.00000000    0.00000000    0.00000000
     atom   13 type  1   force =     0.00000000    0.00000000    0.00000000
     atom   14 type  1   force =     0.00000000    0.00000000    0.00000000
     atom   15 type  1   force =     0.00000000    0.00000000    0.00000000
     atom   16 type  1   force =     0.00000000    0.00000000    0.00000000
     atom   17 type  1   force =     0.00000000    0.00000000    0.00000000
     atom   18 type  1   force =     0.00000000    0.00000000    0.00000000
     atom   19 type  1   force =     0.00000000    0.00000000    0.00000000
     atom   20 type  1   force =     0.00000000    0.00000000    0.00000000
     atom   21 type  1   force =     0.00000000    0.00000000    0.00000000
     atom   22 type  1   force =     0.00000000    0.00000000    0.00000000
     atom   23 type  1   force =     0.00000000    0.00000000    0.00000000
     atom   24 type  1   force =     0.00000000    0.00000000    0.00000000
     The SCF correction term to forces
     atom    1 type  3   force =     0.00009059    0.00000354   -0.00023001
     atom    2 type  3   force =     0.00009964    0.00000045    0.00004652
     atom    3 type  3   force =    -0.00023889    0.00000282   -0.00045832
     atom    4 type  3   force =     0.00003338   -0.00000349    0.00011375
     atom    5 type  2   force =    -0.00018209    0.00000132   -0.00009729
     atom    6 type  2   force =     0.00014031    0.00000171    0.00011412
     atom    7 type  2   force =     0.00004979   -0.00000427   -0.00025318
     atom    8 type  2   force =    -0.00000060    0.00000179    0.00004021
     atom    9 type  2   force =    -0.00005440   -0.00000464   -0.00017580
     atom   10 type  2   force =     0.00007824   -0.00000048    0.00006801
     atom   11 type  2   force =    -0.00009727   -0.00000127    0.00003025
     atom   12 type  2   force =     0.00007908   -0.00000126   -0.00002359
     atom   13 type  1   force =    -0.00023184   -0.00002043    0.00043552
     atom   14 type  1   force =     0.00013090   -0.00001227    0.00017736
     atom   15 type  1   force =     0.00011412   -0.00000734   -0.00006244
     atom   16 type  1   force =    -0.00091006   -0.00001552    0.00050315
     atom   17 type  1   force =     0.00092325    0.00000507   -0.00013470
     atom   18 type  1   force =    -0.00000515   -0.00002161    0.00007101
     atom   19 type  1   force =    -0.00082390   -0.00002198    0.00055279
     atom   20 type  1   force =     0.00054227   -0.00000673   -0.00003731
     atom   21 type  1   force =     0.00031658   -0.00001715   -0.00012865
     atom   22 type  1   force =     0.00020923   -0.00003441    0.00017591
     atom   23 type  1   force =    -0.00042602   -0.00000383    0.00055250
     atom   24 type  1   force =     0.00022999   -0.00001613   -0.00028263

     Total force =     0.572031     Total SCF correction =     0.002218


     Computing stress (Cartesian axis) and pressure

          total   stress  (Ry/bohr**3)                   (kbar)     P=       28.22
   0.00035965   0.00000171  -0.00003989           52.91        0.25       -5.87
   0.00000171  -0.00034295  -0.00002113            0.25      -50.45       -3.11
  -0.00003989  -0.00002113   0.00055882           -5.87       -3.11       82.21

     kinetic stress (kbar)  43280.05     -0.41     -4.94
                               -0.41  43195.88     -9.33
                               -4.94     -9.33  42975.28

     local   stress (kbar) -88099.45      7.94   -140.17
                                7.94 -96212.75    -73.49
                             -140.17    -73.49  80035.65

     nonloc. stress (kbar)  19874.92     -1.33      7.69
                               -1.33  19859.08      3.61
                                7.69      3.61  19795.71

     hartree stress (kbar)  81250.11     -3.58    108.68
                               -3.58  84266.65     90.17
                              108.68     90.17  -3130.04

     exc-cor stress (kbar)  -9751.09      0.01     -0.39
                                0.01  -9747.11     -0.18
                               -0.39     -0.18  -9746.00

     corecor stress (kbar)  -4021.40      0.01     -0.04
                                0.01  -4020.92     -0.00
                               -0.04     -0.00  -4019.59

     ewald   stress (kbar) -42480.23     -2.39     23.30
                               -2.39 -37391.27    -13.88
                               23.30    -13.88-125828.80

     hubbard stress (kbar)      0.00      0.00      0.00
                                0.00      0.00      0.00
                                0.00      0.00      0.00

     london  stress (kbar)      0.00      0.00      0.00
                                0.00      0.00      0.00
                                0.00      0.00      0.00

     DFT-D3  stress (kbar)      0.00      0.00      0.00
                                0.00      0.00      0.00
                                0.00      0.00      0.00

     XDM     stress (kbar)      0.00      0.00      0.00
                                0.00      0.00      0.00
                                0.00      0.00      0.00

     dft-nl  stress (kbar)      0.00      0.00      0.00
                                0.00      0.00      0.00
                                0.00      0.00      0.00

     TS-vdW  stress (kbar)      0.00      0.00      0.00
                                0.00      0.00      0.00
                                0.00      0.00      0.00



     Writing output data file /tmp//Ni(100)_ZrO2(110).save/
 
     init_run     :     33.80s CPU    222.90s WALL (       1 calls)
     electrons    :   7260.46s CPU  53692.22s WALL (       1 calls)
     forces       :     14.33s CPU    107.89s WALL (       1 calls)
     stress       :     62.57s CPU    457.50s WALL (       1 calls)

     Called by init_run:
     wfcinit      :     25.92s CPU    172.30s WALL (       1 calls)
     wfcinit:atom :      0.09s CPU      0.89s WALL (      16 calls)
     wfcinit:wfcr :     24.97s CPU    165.71s WALL (      16 calls)
     potinit      :      2.23s CPU     14.23s WALL (       1 calls)
     hinit0       :      4.48s CPU     27.69s WALL (       1 calls)

     Called by electrons:
     c_bands      :   6059.65s CPU  44625.95s WALL (     117 calls)
     sum_band     :   1015.31s CPU   7473.64s WALL (     117 calls)
     v_of_rho     :     41.49s CPU    291.94s WALL (     118 calls)
     v_h          :      1.59s CPU      9.10s WALL (     118 calls)
     v_xc         :     40.55s CPU    287.73s WALL (     120 calls)
     newd         :     94.66s CPU    862.69s WALL (     118 calls)
     PAW_pot      :     26.87s CPU    252.46s WALL (     118 calls)
     mix_rho      :     18.84s CPU    154.63s WALL (     117 calls)

     Called by c_bands:
     init_us_2    :     24.30s CPU    101.09s WALL (    3792 calls)
     cegterg      :   5829.41s CPU  43061.10s WALL (    1872 calls)

     Called by sum_band:
     sum_band:bec :      1.66s CPU      1.70s WALL (    1872 calls)
     addusdens    :    156.69s CPU   1272.15s WALL (     117 calls)

     Called by *egterg:
     h_psi        :   3316.01s CPU  24148.67s WALL (    4301 calls)
     s_psi        :    379.14s CPU   2536.21s WALL (    4301 calls)
     g_psi        :     18.12s CPU    130.74s WALL (    2413 calls)
     cdiaghg      :    908.83s CPU   7729.60s WALL (    4285 calls)
     cegterg:over :    506.60s CPU   3538.35s WALL (    2413 calls)
     cegterg:upda :    268.18s CPU   1759.23s WALL (    2413 calls)
     cegterg:last :    212.46s CPU   1364.02s WALL (    1872 calls)
     cdiaghg:chol :     31.85s CPU    300.83s WALL (    4285 calls)
     cdiaghg:inve :     10.49s CPU     58.27s WALL (    4285 calls)
     cdiaghg:para :    108.11s CPU    782.97s WALL (    8570 calls)

     Called by h_psi:
     h_psi:calbec :    428.70s CPU   2965.76s WALL (    4301 calls)
     vloc_psi     :   2501.64s CPU  18594.39s WALL (    4301 calls)
     add_vuspsi   :    379.21s CPU   2377.04s WALL (    4301 calls)

     General routines
     calbec       :    647.45s CPU   4509.70s WALL (    6253 calls)
     fft          :     32.58s CPU    272.39s WALL (    2988 calls)
     ffts         :      1.31s CPU     12.29s WALL (     470 calls)
     fftw         :   2877.98s CPU  22908.66s WALL ( 1797692 calls)
     interpolate  :      2.57s CPU     18.77s WALL (     236 calls)
 
     Parallel routines
     fft_scatt_xy :    313.50s CPU    329.33s WALL ( 1801150 calls)
     fft_scatt_yz :   1526.01s CPU  21744.47s WALL ( 1801150 calls)

     PAW routines
     PAW_pot      :     26.87s CPU    252.46s WALL (     118 calls)
 
     PWSCF        :      2h 3m CPU     15h12m WALL

 
   This run was terminated on:   8:23:49  23Aug2022            

=------------------------------------------------------------------------------=
   JOB DONE.
=------------------------------------------------------------------------------=
