
     Program PWSCF v.6.5 starts on 22Aug2022 at 17: 9:21 

     This program is part of the open-source Quantum ESPRESSO suite
     for quantum simulation of materials; please cite
         "P. Giannozzi et al., J. Phys.:Condens. Matter 21 395502 (2009);
         "P. Giannozzi et al., J. Phys.:Condens. Matter 29 465901 (2017);
          URL http://www.quantum-espresso.org", 
     in publications or presentations arising from this work. More details at
     http://www.quantum-espresso.org/quote

     Parallel version (MPI), running on     8 processors

     MPI processes distributed on     1 nodes
     R & G space division:  proc/nbgrp/npool/nimage =       8
     Waiting for input...
     Reading input from standard input

     Current dimensions of program PWSCF are:
     Max number of different atomic species (ntypx) = 10
     Max number of k-points (npk) =  40000
     Max angular momentum in pseudopotentials (lmaxx) =  3
               file O.pbesol-n-kjpaw_psl.0.1.UPF: wavefunction(s)  2P renormalized

     Subspace diagonalization in iterative solution of the eigenvalue problem:
     one sub-group per band group will be used
     scalapack distributed-memory algorithm (size of sub-group:  2*  2 procs)

 
     Parallelization info
     --------------------
     sticks:   dense  smooth     PW     G-vecs:    dense   smooth      PW
     Min        1030     514    143                87478    30912    4533
     Max        1031     515    144                87483    30917    4536
     Sum        8245    4119   1147               699835   247329   36281
 


     bravais-lattice index     =            0
     lattice parameter (alat)  =      19.1327  a.u.
     unit-cell volume          =    1831.1486 (a.u.)^3
     number of atoms/cell      =           23
     number of atomic types    =            4
     number of electrons       =       310.00
     number of Kohn-Sham states=          186
     kinetic-energy cutoff     =     100.0000  Ry
     charge density cutoff     =     800.0000  Ry
     convergence threshold     =      1.0E-06
     mixing beta               =       0.4000
     number of iterations used =            8  plain     mixing
     Exchange-correlation= SLA  PW   PSX  PSC
                           (   1   4  10   8   0   0   0)

     celldm(1)=  19.132690  celldm(2)=   0.000000  celldm(3)=   0.000000
     celldm(4)=   0.000000  celldm(5)=   0.000000  celldm(6)=   0.000000

     crystal axes: (cart. coord. in units of alat)
               a(1) = (   1.000000   0.000000   0.000000 )  
               a(2) = (   0.000000   0.353553   0.000000 )  
               a(3) = (   0.000000   0.000000   0.739504 )  

     reciprocal axes: (cart. coord. in units 2 pi/alat)
               b(1) = (  1.000000  0.000000  0.000000 )  
               b(2) = (  0.000000  2.828428  0.000000 )  
               b(3) = (  0.000000  0.000000  1.352258 )  


     PseudoPot. # 1 for Cr read from file:
     /home/zczlx99/q-e/pseudo/DFT/cr_pbesol_v1.5.uspp.F.UPF
     MD5 check sum: a621641e0be27168676a837af8893d0f
     Pseudo is Ultrasoft + core correction, Zval = 14.0
     Generated by new atomic code, or converted to UPF format
     Using radial grid of  857 points,  6 beta functions with: 
                l(1) =   0
                l(2) =   0
                l(3) =   1
                l(4) =   1
                l(5) =   2
                l(6) =   2
     Q(r) pseudized with  8 coefficients,  rinner =    0.950   0.950   0.950
                                                       0.950   0.950

     PseudoPot. # 2 for Ni read from file:
     /home/zczlx99/q-e/pseudo/DFT/ni_pbesol_v1.4.uspp.F.UPF
     MD5 check sum: de937c0c8ae4b350e69c02b76d8a83cb
     Pseudo is Ultrasoft + core correction, Zval = 18.0
     Generated by new atomic code, or converted to UPF format
     Using radial grid of  865 points,  6 beta functions with: 
                l(1) =   0
                l(2) =   0
                l(3) =   1
                l(4) =   1
                l(5) =   2
                l(6) =   2
     Q(r) pseudized with 10 coefficients,  rinner =    0.980   0.980   0.980
                                                       0.980   0.980

     PseudoPot. # 3 for O  read from file:
     /home/zczlx99/q-e/pseudo/DFT/O.pbesol-n-kjpaw_psl.0.1.UPF
     MD5 check sum: 81d73d1479e654e5638b0319f0d6c2c7
     Pseudo is Projector augmented-wave + core cor, Zval =  6.0
     Generated using "atomic" code by A. Dal Corso v.6.0 svn rev. 13079
     Shape of augmentation charge: BESSEL
     Using radial grid of 1095 points,  4 beta functions with: 
                l(1) =   0
                l(2) =   0
                l(3) =   1
                l(4) =   1
     Q(r) pseudized with 0 coefficients 


     PseudoPot. # 4 for Zr read from file:
     /home/zczlx99/q-e/pseudo/DFT/zr_pbesol_v1.uspp.F.UPF
     MD5 check sum: f29f2a20533738a515abe666fee35838
     Pseudo is Ultrasoft + core correction, Zval = 12.0
     Generated by new atomic code, or converted to UPF format
     Using radial grid of  887 points,  6 beta functions with: 
                l(1) =   0
                l(2) =   0
                l(3) =   1
                l(4) =   1
                l(5) =   2
                l(6) =   2
     Q(r) pseudized with  6 coefficients,  rinner =    1.200   1.200   1.200
                                                       1.200   1.200

     atomic species   valence    mass     pseudopotential
        Cr            14.00    51.99610     Cr( 1.00)
        Ni            18.00    58.69340     Ni( 1.00)
        O              6.00    15.99940     O ( 1.00)
        Zr            12.00    91.22400     Zr( 1.00)

     Starting magnetic structure 
     atomic species   magnetization
        Cr           0.357
        Ni           0.278
        O            0.100
        Zr           0.417

     No symmetry found


                                    s                        frac. trans.

      isym =  1     identity                                     

 cryst.   s( 1) = (     1          0          0      )
                  (     0          1          0      )
                  (     0          0          1      )

 cart.    s( 1) = (  1.0000000  0.0000000  0.0000000 )
                  (  0.0000000  1.0000000  0.0000000 )
                  (  0.0000000  0.0000000  1.0000000 )


   Cartesian axes

     site n.     atom                  positions (alat units)
         1           Zr  tau(   1) = (   0.0468750   0.1459866   0.1459866  )
         2           Zr  tau(   2) = (   0.5468750   0.1459866   0.1459866  )
         3           Cr  tau(   3) = (   0.2968750   0.3227633   0.3227633  )
         4           Cr  tau(   4) = (   0.7968750   0.3227633   0.3227633  )
         5           O   tau(   5) = (   0.1718750   0.1459866   0.3227633  )
         6           O   tau(   6) = (   0.6718750   0.1459866   0.3227633  )
         7           O   tau(   7) = (   0.4218749   0.1459866   0.3227633  )
         8           O   tau(   8) = (   0.1718750   0.3227633   0.1459866  )
         9           O   tau(   9) = (   0.6718750   0.3227633   0.1459866  )
        10           O   tau(  10) = (   0.4218749   0.3227633   0.1459866  )
        11           O   tau(  11) = (   0.9218750   0.3227633   0.1459866  )
        12           Ni  tau(  12) = (   0.0699886   0.1523850   0.5188821  )
        13           Ni  tau(  13) = (   0.4107433   0.1523850   0.5188821  )
        14           Ni  tau(  14) = (   0.7514981   0.1523850   0.5188821  )
        15           Ni  tau(  15) = (   0.2403659   0.3227624   0.5188821  )
        16           Ni  tau(  16) = (   0.5811207   0.3227624   0.5188821  )
        17           Ni  tau(  17) = (   0.9218755   0.3227624   0.5188821  )
        18           Ni  tau(  18) = (   0.2403659   0.1523850   0.6892595  )
        19           Ni  tau(  19) = (   0.5811207   0.1523850   0.6892595  )
        20           Ni  tau(  20) = (   0.9218755   0.1523850   0.6892595  )
        21           Ni  tau(  21) = (   0.0699886   0.3227624   0.6892595  )
        22           Ni  tau(  22) = (   0.4107433   0.3227624   0.6892595  )
        23           Ni  tau(  23) = (   0.7514981   0.3227624   0.6892595  )

   Crystallographic axes

     site n.     atom                  positions (cryst. coord.)
         1           Zr  tau(   1) = (  0.0468750  0.4129124  0.1974114  )
         2           Zr  tau(   2) = (  0.5468750  0.4129124  0.1974114  )
         3           Cr  tau(   3) = (  0.2968750  0.9129127  0.4364591  )
         4           Cr  tau(   4) = (  0.7968750  0.9129127  0.4364591  )
         5           O   tau(   5) = (  0.1718750  0.4129124  0.4364591  )
         6           O   tau(   6) = (  0.6718750  0.4129124  0.4364591  )
         7           O   tau(   7) = (  0.4218749  0.4129124  0.4364591  )
         8           O   tau(   8) = (  0.1718750  0.9129127  0.1974114  )
         9           O   tau(   9) = (  0.6718750  0.9129127  0.1974114  )
        10           O   tau(  10) = (  0.4218749  0.9129127  0.1974114  )
        11           O   tau(  11) = (  0.9218750  0.9129127  0.1974114  )
        12           Ni  tau(  12) = (  0.0699886  0.4310101  0.7016622  )
        13           Ni  tau(  13) = (  0.4107433  0.4310101  0.7016622  )
        14           Ni  tau(  14) = (  0.7514981  0.4310101  0.7016622  )
        15           Ni  tau(  15) = (  0.2403659  0.9129102  0.7016622  )
        16           Ni  tau(  16) = (  0.5811207  0.9129102  0.7016622  )
        17           Ni  tau(  17) = (  0.9218755  0.9129102  0.7016622  )
        18           Ni  tau(  18) = (  0.2403659  0.4310101  0.9320563  )
        19           Ni  tau(  19) = (  0.5811207  0.4310101  0.9320563  )
        20           Ni  tau(  20) = (  0.9218755  0.4310101  0.9320563  )
        21           Ni  tau(  21) = (  0.0699886  0.9129102  0.9320563  )
        22           Ni  tau(  22) = (  0.4107433  0.9129102  0.9320563  )
        23           Ni  tau(  23) = (  0.7514981  0.9129102  0.9320563  )

     number of k points=     8  Marzari-Vanderbilt smearing, width (Ry)=  0.0147
                       cart. coord. in units 2pi/alat
        k(    1) = (   0.0000000   0.0000000   0.0000000), wk =   0.1250000
        k(    2) = (   0.0000000   0.0000000  -0.6761288), wk =   0.1250000
        k(    3) = (   0.0000000  -1.4142138   0.0000000), wk =   0.1250000
        k(    4) = (   0.0000000  -1.4142138  -0.6761288), wk =   0.1250000
        k(    5) = (  -0.5000000   0.0000000   0.0000000), wk =   0.1250000
        k(    6) = (  -0.5000000   0.0000000  -0.6761288), wk =   0.1250000
        k(    7) = (  -0.5000000  -1.4142138   0.0000000), wk =   0.1250000
        k(    8) = (  -0.5000000  -1.4142138  -0.6761288), wk =   0.1250000

                       cryst. coord.
        k(    1) = (   0.0000000   0.0000000   0.0000000), wk =   0.1250000
        k(    2) = (   0.0000000   0.0000000  -0.5000000), wk =   0.1250000
        k(    3) = (   0.0000000  -0.5000000   0.0000000), wk =   0.1250000
        k(    4) = (   0.0000000  -0.5000000  -0.5000000), wk =   0.1250000
        k(    5) = (  -0.5000000   0.0000000   0.0000000), wk =   0.1250000
        k(    6) = (  -0.5000000   0.0000000  -0.5000000), wk =   0.1250000
        k(    7) = (  -0.5000000  -0.5000000   0.0000000), wk =   0.1250000
        k(    8) = (  -0.5000000  -0.5000000  -0.5000000), wk =   0.1250000

     Dense  grid:   699835 G-vectors     FFT dimensions: ( 180,  64, 128)

     Smooth grid:   247329 G-vectors     FFT dimensions: ( 125,  45,  96)

     Dynamical RAM for                 wfc:      10.97 MB

     Dynamical RAM for     wfc (w. buffer):     186.48 MB

     Dynamical RAM for           str. fact:       5.34 MB

     Dynamical RAM for           local pot:       0.00 MB

     Dynamical RAM for          nlocal pot:      20.29 MB

     Dynamical RAM for                qrad:      27.61 MB

     Dynamical RAM for          rho,v,vnew:      16.45 MB

     Dynamical RAM for               rhoin:       5.48 MB

     Dynamical RAM for            rho*nmix:      42.71 MB

     Dynamical RAM for           G-vectors:       5.24 MB

     Dynamical RAM for          h,s,v(r/c):       6.33 MB

     Dynamical RAM for          <psi|beta>:       0.98 MB

     Dynamical RAM for                 psi:      43.88 MB

     Dynamical RAM for                hpsi:      43.88 MB

     Dynamical RAM for                spsi:      43.88 MB

     Dynamical RAM for      wfcinit/wfcrot:      28.34 MB

     Dynamical RAM for           addusdens:     265.63 MB

     Dynamical RAM for          addusforce:     339.23 MB

     Dynamical RAM for         addusstress:     270.30 MB

     Estimated static dynamical RAM per process >     324.71 MB

     Estimated max dynamical RAM per process >     663.94 MB

     Estimated total dynamical RAM >       5.19 GB
     Generating pointlists ...
     new r_m :   0.0842 (alat units)  1.6108 (a.u.) for type    1
     new r_m :   0.0811 (alat units)  1.5511 (a.u.) for type    2
     new r_m :   0.0811 (alat units)  1.5511 (a.u.) for type    3
     new r_m :   0.0822 (alat units)  1.5729 (a.u.) for type    4

     Check: negative core charge=   -0.000004

     Initial potential from superposition of free atoms

     starting charge  283.99602, renormalised to  310.00000
     Starting wfcs are  230 randomized atomic wfcs
     Checking if some PAW data can be deallocated... 
       PAW data deallocated on    5 nodes for type:  3

     total cpu time spent up to now is      215.7 secs

     Self-consistent Calculation

     iteration #  1     ecut=   100.00 Ry     beta= 0.40
     Davidson diagonalization with overlap
     ethr =  1.00E-02,  avg # of iterations =  3.8

     total cpu time spent up to now is     1025.1 secs

     total energy              =   -4865.88489555 Ry
     Harris-Foulkes estimate   =   -5008.54779538 Ry
     estimated scf accuracy    <     269.09548903 Ry

     total magnetization       =    22.34 Bohr mag/cell
     absolute magnetization    =    24.07 Bohr mag/cell

     iteration #  2     ecut=   100.00 Ry     beta= 0.40
     Davidson diagonalization with overlap
     ethr =  1.00E-02,  avg # of iterations =  4.0

     total cpu time spent up to now is     1917.6 secs

     total energy              =   -4847.06781142 Ry
     Harris-Foulkes estimate   =   -5007.62482799 Ry
     estimated scf accuracy    <     628.55549454 Ry

     total magnetization       =    16.58 Bohr mag/cell
     absolute magnetization    =    17.49 Bohr mag/cell

     iteration #  3     ecut=   100.00 Ry     beta= 0.40
     Davidson diagonalization with overlap
     ethr =  1.00E-02,  avg # of iterations =  5.0

     total cpu time spent up to now is     2957.6 secs

     total energy              =   -4876.59529719 Ry
     Harris-Foulkes estimate   =   -5033.59743224 Ry
     estimated scf accuracy    <    1445.72235039 Ry

     total magnetization       =    11.16 Bohr mag/cell
     absolute magnetization    =    11.73 Bohr mag/cell

     iteration #  4     ecut=   100.00 Ry     beta= 0.40
     Davidson diagonalization with overlap
     ethr =  1.00E-02,  avg # of iterations =  5.1

     total cpu time spent up to now is     3942.3 secs

     total energy              =   -4947.88179931 Ry
     Harris-Foulkes estimate   =   -4982.32800461 Ry
     estimated scf accuracy    <     235.42050823 Ry

     total magnetization       =     4.93 Bohr mag/cell
     absolute magnetization    =     5.98 Bohr mag/cell

     iteration #  5     ecut=   100.00 Ry     beta= 0.40
     Davidson diagonalization with overlap
     ethr =  1.00E-02,  avg # of iterations =  3.0

     total cpu time spent up to now is     4479.5 secs

     total energy              =   -4955.39076549 Ry
     Harris-Foulkes estimate   =   -4963.06460842 Ry
     estimated scf accuracy    <      74.61457333 Ry

     total magnetization       =     7.42 Bohr mag/cell
     absolute magnetization    =     9.52 Bohr mag/cell

     iteration #  6     ecut=   100.00 Ry     beta= 0.40
     Davidson diagonalization with overlap
     ethr =  1.00E-02,  avg # of iterations =  1.0

     total cpu time spent up to now is     4859.1 secs

     total energy              =   -4953.59752084 Ry
     Harris-Foulkes estimate   =   -4958.04173660 Ry
     estimated scf accuracy    <      55.86883035 Ry

     total magnetization       =    14.22 Bohr mag/cell
     absolute magnetization    =    15.85 Bohr mag/cell

     iteration #  7     ecut=   100.00 Ry     beta= 0.40
     Davidson diagonalization with overlap
     ethr =  1.00E-02,  avg # of iterations =  1.9

     total cpu time spent up to now is     5265.0 secs

     total energy              =   -4953.35866506 Ry
     Harris-Foulkes estimate   =   -4957.16001157 Ry
     estimated scf accuracy    <      43.63655952 Ry

     total magnetization       =    10.88 Bohr mag/cell
     absolute magnetization    =    13.09 Bohr mag/cell

     iteration #  8     ecut=   100.00 Ry     beta= 0.40
     Davidson diagonalization with overlap
     ethr =  1.00E-02,  avg # of iterations =  1.2

     total cpu time spent up to now is     5650.8 secs

     total energy              =   -4951.61622412 Ry
     Harris-Foulkes estimate   =   -4957.24136452 Ry
     estimated scf accuracy    <      82.29087326 Ry

     total magnetization       =     7.30 Bohr mag/cell
     absolute magnetization    =     9.68 Bohr mag/cell

     iteration #  9     ecut=   100.00 Ry     beta= 0.40
     Davidson diagonalization with overlap
     ethr =  1.00E-02,  avg # of iterations =  1.2

     total cpu time spent up to now is     6031.7 secs

     total energy              =   -4952.36581724 Ry
     Harris-Foulkes estimate   =   -4955.51642324 Ry
     estimated scf accuracy    <      45.81466512 Ry

     total magnetization       =    19.02 Bohr mag/cell
     absolute magnetization    =    20.69 Bohr mag/cell

     iteration # 10     ecut=   100.00 Ry     beta= 0.40
     Davidson diagonalization with overlap
     ethr =  1.00E-02,  avg # of iterations =  1.0

     total cpu time spent up to now is     6401.4 secs

     total energy              =   -4952.81201762 Ry
     Harris-Foulkes estimate   =   -4955.18868222 Ry
     estimated scf accuracy    <      41.09266708 Ry

     total magnetization       =    12.79 Bohr mag/cell
     absolute magnetization    =    14.90 Bohr mag/cell

     iteration # 11     ecut=   100.00 Ry     beta= 0.40
     Davidson diagonalization with overlap
     ethr =  1.00E-02,  avg # of iterations =  1.0

     total cpu time spent up to now is     6783.9 secs

     total energy              =   -4952.30545822 Ry
     Harris-Foulkes estimate   =   -4955.16322344 Ry
     estimated scf accuracy    <      29.18544953 Ry

     total magnetization       =    14.49 Bohr mag/cell
     absolute magnetization    =    16.21 Bohr mag/cell

     iteration # 12     ecut=   100.00 Ry     beta= 0.40
     Davidson diagonalization with overlap
     ethr =  9.41E-03,  avg # of iterations =  1.0

     total cpu time spent up to now is     7169.5 secs

     total energy              =   -4953.61259109 Ry
     Harris-Foulkes estimate   =   -4955.67228907 Ry
     estimated scf accuracy    <      30.24265043 Ry

     total magnetization       =     5.65 Bohr mag/cell
     absolute magnetization    =     7.72 Bohr mag/cell

     iteration # 13     ecut=   100.00 Ry     beta= 0.40
     Davidson diagonalization with overlap
     ethr =  9.41E-03,  avg # of iterations =  1.0

     total cpu time spent up to now is     7546.4 secs

     total energy              =   -4953.38593495 Ry
     Harris-Foulkes estimate   =   -4954.86410986 Ry
     estimated scf accuracy    <      23.02815693 Ry

     total magnetization       =    14.42 Bohr mag/cell
     absolute magnetization    =    16.19 Bohr mag/cell

     iteration # 14     ecut=   100.00 Ry     beta= 0.40
     Davidson diagonalization with overlap
     ethr =  7.43E-03,  avg # of iterations =  1.0

     total cpu time spent up to now is     7924.4 secs

     total energy              =   -4953.86254515 Ry
     Harris-Foulkes estimate   =   -4954.33457481 Ry
     estimated scf accuracy    <      11.27075987 Ry

     total magnetization       =    11.74 Bohr mag/cell
     absolute magnetization    =    13.64 Bohr mag/cell

     iteration # 15     ecut=   100.00 Ry     beta= 0.40
     Davidson diagonalization with overlap
     ethr =  3.64E-03,  avg # of iterations =  1.1

     total cpu time spent up to now is     8305.2 secs

     total energy              =   -4953.16998421 Ry
     Harris-Foulkes estimate   =   -4954.14511975 Ry
     estimated scf accuracy    <       6.15797942 Ry

     total magnetization       =    10.19 Bohr mag/cell
     absolute magnetization    =    12.15 Bohr mag/cell

     iteration # 16     ecut=   100.00 Ry     beta= 0.40
     Davidson diagonalization with overlap
     ethr =  1.99E-03,  avg # of iterations =  2.6

     total cpu time spent up to now is     8751.9 secs

     total energy              =   -4950.44325256 Ry
     Harris-Foulkes estimate   =   -4956.97032458 Ry
     estimated scf accuracy    <     112.52716639 Ry

     total magnetization       =     9.68 Bohr mag/cell
     absolute magnetization    =    10.94 Bohr mag/cell

     iteration # 17     ecut=   100.00 Ry     beta= 0.40
     Davidson diagonalization with overlap
     ethr =  1.99E-03,  avg # of iterations =  2.6

     total cpu time spent up to now is     9205.7 secs

     total energy              =   -4953.65841613 Ry
     Harris-Foulkes estimate   =   -4954.47913146 Ry
     estimated scf accuracy    <      11.30915006 Ry

     total magnetization       =    12.64 Bohr mag/cell
     absolute magnetization    =    14.27 Bohr mag/cell

     iteration # 18     ecut=   100.00 Ry     beta= 0.40
     Davidson diagonalization with overlap
     ethr =  1.99E-03,  avg # of iterations =  1.1

     total cpu time spent up to now is     9587.2 secs

     total energy              =   -4953.72931798 Ry
     Harris-Foulkes estimate   =   -4954.46115592 Ry
     estimated scf accuracy    <      11.74294991 Ry

     total magnetization       =    11.58 Bohr mag/cell
     absolute magnetization    =    13.34 Bohr mag/cell

     iteration # 19     ecut=   100.00 Ry     beta= 0.40
     Davidson diagonalization with overlap
     ethr =  1.99E-03,  avg # of iterations =  1.2

     total cpu time spent up to now is     9975.4 secs

     total energy              =   -4953.84217310 Ry
     Harris-Foulkes estimate   =   -4954.31064650 Ry
     estimated scf accuracy    <       9.03589674 Ry

     total magnetization       =    11.23 Bohr mag/cell
     absolute magnetization    =    13.03 Bohr mag/cell

     iteration # 20     ecut=   100.00 Ry     beta= 0.40
     Davidson diagonalization with overlap
     ethr =  1.99E-03,  avg # of iterations =  1.0

     total cpu time spent up to now is    10360.6 secs

     total energy              =   -4953.97489170 Ry
     Harris-Foulkes estimate   =   -4954.13319646 Ry
     estimated scf accuracy    <       2.81215907 Ry

     total magnetization       =    12.64 Bohr mag/cell
     absolute magnetization    =    14.25 Bohr mag/cell

     iteration # 21     ecut=   100.00 Ry     beta= 0.40
     Davidson diagonalization with overlap
     ethr =  9.07E-04,  avg # of iterations =  1.0

     total cpu time spent up to now is    10741.1 secs

     total energy              =   -4954.05048015 Ry
     Harris-Foulkes estimate   =   -4954.09314984 Ry
     estimated scf accuracy    <       0.84363574 Ry

     total magnetization       =    12.32 Bohr mag/cell
     absolute magnetization    =    13.91 Bohr mag/cell

     iteration # 22     ecut=   100.00 Ry     beta= 0.40
     Davidson diagonalization with overlap
     ethr =  2.72E-04,  avg # of iterations =  1.8

     total cpu time spent up to now is    11162.3 secs

     total energy              =   -4953.97001387 Ry
     Harris-Foulkes estimate   =   -4954.15430495 Ry
     estimated scf accuracy    <       1.86959973 Ry

     total magnetization       =    13.18 Bohr mag/cell
     absolute magnetization    =    14.53 Bohr mag/cell

     iteration # 23     ecut=   100.00 Ry     beta= 0.40
     Davidson diagonalization with overlap
     ethr =  2.72E-04,  avg # of iterations =  2.4

     total cpu time spent up to now is    11607.6 secs

     total energy              =   -4953.83772841 Ry
     Harris-Foulkes estimate   =   -4954.33303354 Ry
     estimated scf accuracy    <       9.51135423 Ry

     total magnetization       =    13.05 Bohr mag/cell
     absolute magnetization    =    14.53 Bohr mag/cell

     iteration # 24     ecut=   100.00 Ry     beta= 0.40
     Davidson diagonalization with overlap
     ethr =  2.72E-04,  avg # of iterations =  1.9

     total cpu time spent up to now is    12030.8 secs

     total energy              =   -4953.90939106 Ry
     Harris-Foulkes estimate   =   -4954.22951691 Ry
     estimated scf accuracy    <       6.18875505 Ry

     total magnetization       =    12.34 Bohr mag/cell
     absolute magnetization    =    13.89 Bohr mag/cell

     iteration # 25     ecut=   100.00 Ry     beta= 0.40
     Davidson diagonalization with overlap
     ethr =  2.72E-04,  avg # of iterations =  1.1

     total cpu time spent up to now is    12422.1 secs

     total energy              =   -4953.96844675 Ry
     Harris-Foulkes estimate   =   -4954.15962804 Ry
     estimated scf accuracy    <       2.95935011 Ry

     total magnetization       =    15.22 Bohr mag/cell
     absolute magnetization    =    16.47 Bohr mag/cell

     iteration # 26     ecut=   100.00 Ry     beta= 0.40
     Davidson diagonalization with overlap
     ethr =  2.72E-04,  avg # of iterations =  2.0

     total cpu time spent up to now is    12845.4 secs

     total energy              =   -4953.64042055 Ry
     Harris-Foulkes estimate   =   -4954.41922677 Ry
     estimated scf accuracy    <      15.88966165 Ry

     total magnetization       =    13.25 Bohr mag/cell
     absolute magnetization    =    14.61 Bohr mag/cell

     iteration # 27     ecut=   100.00 Ry     beta= 0.40
     Davidson diagonalization with overlap
     ethr =  2.72E-04,  avg # of iterations =  1.9

     total cpu time spent up to now is    13270.3 secs

     total energy              =   -4954.04524082 Ry
     Harris-Foulkes estimate   =   -4954.14306494 Ry
     estimated scf accuracy    <       1.62938677 Ry

     total magnetization       =    11.62 Bohr mag/cell
     absolute magnetization    =    13.12 Bohr mag/cell

     iteration # 28     ecut=   100.00 Ry     beta= 0.40
     Davidson diagonalization with overlap
     ethr =  2.72E-04,  avg # of iterations =  1.0

     total cpu time spent up to now is    13655.2 secs

     total energy              =   -4954.07975708 Ry
     Harris-Foulkes estimate   =   -4954.12014451 Ry
     estimated scf accuracy    <       0.86502108 Ry

     total magnetization       =    11.79 Bohr mag/cell
     absolute magnetization    =    13.32 Bohr mag/cell

     iteration # 29     ecut=   100.00 Ry     beta= 0.40
     Davidson diagonalization with overlap
     ethr =  2.72E-04,  avg # of iterations =  1.0

     total cpu time spent up to now is    14038.9 secs

     total energy              =   -4954.09516361 Ry
     Harris-Foulkes estimate   =   -4954.10335613 Ry
     estimated scf accuracy    <       0.33869620 Ry

     total magnetization       =    12.19 Bohr mag/cell
     absolute magnetization    =    13.68 Bohr mag/cell

     iteration # 30     ecut=   100.00 Ry     beta= 0.40
     Davidson diagonalization with overlap
     ethr =  1.09E-04,  avg # of iterations =  1.0

     total cpu time spent up to now is    14422.1 secs

     total energy              =   -4954.08460083 Ry
     Harris-Foulkes estimate   =   -4954.11279227 Ry
     estimated scf accuracy    <       0.56689177 Ry

     total magnetization       =    12.61 Bohr mag/cell
     absolute magnetization    =    14.05 Bohr mag/cell

     iteration # 31     ecut=   100.00 Ry     beta= 0.40
     Davidson diagonalization with overlap
     ethr =  1.09E-04,  avg # of iterations =  1.0

     total cpu time spent up to now is    14804.5 secs

     total energy              =   -4954.08653762 Ry
     Harris-Foulkes estimate   =   -4954.10639538 Ry
     estimated scf accuracy    <       0.22015676 Ry

     total magnetization       =    12.48 Bohr mag/cell
     absolute magnetization    =    13.93 Bohr mag/cell

     iteration # 32     ecut=   100.00 Ry     beta= 0.40
     Davidson diagonalization with overlap
     ethr =  7.10E-05,  avg # of iterations =  4.0

     total cpu time spent up to now is    15312.4 secs

     total energy              =   -4954.01525441 Ry
     Harris-Foulkes estimate   =   -4954.18402069 Ry
     estimated scf accuracy    <       2.64420082 Ry

     total magnetization       =    14.33 Bohr mag/cell
     absolute magnetization    =    15.46 Bohr mag/cell

     iteration # 33     ecut=   100.00 Ry     beta= 0.40
     Davidson diagonalization with overlap
     ethr =  7.10E-05,  avg # of iterations =  2.0

     total cpu time spent up to now is    15735.8 secs

     total energy              =   -4954.09491765 Ry
     Harris-Foulkes estimate   =   -4954.11199472 Ry
     estimated scf accuracy    <       0.25479694 Ry

     total magnetization       =    12.32 Bohr mag/cell
     absolute magnetization    =    13.74 Bohr mag/cell

     iteration # 34     ecut=   100.00 Ry     beta= 0.40
     Davidson diagonalization with overlap
     ethr =  7.10E-05,  avg # of iterations =  1.2

     total cpu time spent up to now is    16123.3 secs

     total energy              =   -4954.07302414 Ry
     Harris-Foulkes estimate   =   -4954.13305992 Ry
     estimated scf accuracy    <       1.19360328 Ry

     total magnetization       =    12.56 Bohr mag/cell
     absolute magnetization    =    14.01 Bohr mag/cell

     iteration # 35     ecut=   100.00 Ry     beta= 0.40
     Davidson diagonalization with overlap
     ethr =  7.10E-05,  avg # of iterations =  1.1

     total cpu time spent up to now is    16503.7 secs

     total energy              =   -4954.08108412 Ry
     Harris-Foulkes estimate   =   -4954.12742249 Ry
     estimated scf accuracy    <       0.94838280 Ry

     total magnetization       =    13.59 Bohr mag/cell
     absolute magnetization    =    14.91 Bohr mag/cell

     iteration # 36     ecut=   100.00 Ry     beta= 0.40
     Davidson diagonalization with overlap
     ethr =  7.10E-05,  avg # of iterations =  1.2

     total cpu time spent up to now is    16903.0 secs

     total energy              =   -4954.08889899 Ry
     Harris-Foulkes estimate   =   -4954.12639925 Ry
     estimated scf accuracy    <       0.61110081 Ry

     total magnetization       =    12.50 Bohr mag/cell
     absolute magnetization    =    13.93 Bohr mag/cell

     iteration # 37     ecut=   100.00 Ry     beta= 0.40
     Davidson diagonalization with overlap
     ethr =  7.10E-05,  avg # of iterations =  1.0

     total cpu time spent up to now is    17287.7 secs

     total energy              =   -4954.10318209 Ry
     Harris-Foulkes estimate   =   -4954.11083213 Ry
     estimated scf accuracy    <       0.12487957 Ry

     total magnetization       =    12.59 Bohr mag/cell
     absolute magnetization    =    14.00 Bohr mag/cell

     iteration # 38     ecut=   100.00 Ry     beta= 0.40
     Davidson diagonalization with overlap
     ethr =  4.03E-05,  avg # of iterations =  1.6

     total cpu time spent up to now is    17685.7 secs

     total energy              =   -4954.08774619 Ry
     Harris-Foulkes estimate   =   -4954.12491207 Ry
     estimated scf accuracy    <       0.78698542 Ry

     total magnetization       =    13.19 Bohr mag/cell
     absolute magnetization    =    14.46 Bohr mag/cell

     iteration # 39     ecut=   100.00 Ry     beta= 0.40
     Davidson diagonalization with overlap
     ethr =  4.03E-05,  avg # of iterations =  1.6

     total cpu time spent up to now is    18092.9 secs

     total energy              =   -4954.10196122 Ry
     Harris-Foulkes estimate   =   -4954.11199469 Ry
     estimated scf accuracy    <       0.19896855 Ry

     total magnetization       =    12.85 Bohr mag/cell
     absolute magnetization    =    14.23 Bohr mag/cell

     iteration # 40     ecut=   100.00 Ry     beta= 0.40
     Davidson diagonalization with overlap
     ethr =  4.03E-05,  avg # of iterations =  1.4

     total cpu time spent up to now is    18488.4 secs

     total energy              =   -4954.08030569 Ry
     Harris-Foulkes estimate   =   -4954.13960265 Ry
     estimated scf accuracy    <       1.27213418 Ry

     total magnetization       =    11.75 Bohr mag/cell
     absolute magnetization    =    13.21 Bohr mag/cell

     iteration # 41     ecut=   100.00 Ry     beta= 0.40
     Davidson diagonalization with overlap
     ethr =  4.03E-05,  avg # of iterations =  1.0

     total cpu time spent up to now is    18881.3 secs

     total energy              =   -4954.10487817 Ry
     Harris-Foulkes estimate   =   -4954.11216275 Ry
     estimated scf accuracy    <       0.08204144 Ry

     total magnetization       =    12.43 Bohr mag/cell
     absolute magnetization    =    13.84 Bohr mag/cell

     iteration # 42     ecut=   100.00 Ry     beta= 0.40
     Davidson diagonalization with overlap
     ethr =  2.65E-05,  avg # of iterations =  1.6

     total cpu time spent up to now is    19292.4 secs

     total energy              =   -4954.08721002 Ry
     Harris-Foulkes estimate   =   -4954.13051731 Ry
     estimated scf accuracy    <       0.71642465 Ry

     total magnetization       =    13.53 Bohr mag/cell
     absolute magnetization    =    14.77 Bohr mag/cell

     iteration # 43     ecut=   100.00 Ry     beta= 0.40
     Davidson diagonalization with overlap
     ethr =  2.65E-05,  avg # of iterations =  1.4

     total cpu time spent up to now is    19692.2 secs

     total energy              =   -4954.10813935 Ry
     Harris-Foulkes estimate   =   -4954.11218594 Ry
     estimated scf accuracy    <       0.05546797 Ry

     total magnetization       =    12.54 Bohr mag/cell
     absolute magnetization    =    13.93 Bohr mag/cell

     iteration # 44     ecut=   100.00 Ry     beta= 0.40
     Davidson diagonalization with overlap
     ethr =  1.79E-05,  avg # of iterations =  1.4

     total cpu time spent up to now is    20089.5 secs

     total energy              =   -4954.10259481 Ry
     Harris-Foulkes estimate   =   -4954.11828080 Ry
     estimated scf accuracy    <       0.27661503 Ry

     total magnetization       =    12.67 Bohr mag/cell
     absolute magnetization    =    14.06 Bohr mag/cell

     iteration # 45     ecut=   100.00 Ry     beta= 0.40
     Davidson diagonalization with overlap
     ethr =  1.79E-05,  avg # of iterations =  1.0

     total cpu time spent up to now is    20480.4 secs

     total energy              =   -4954.10809982 Ry
     Harris-Foulkes estimate   =   -4954.11400470 Ry
     estimated scf accuracy    <       0.13408124 Ry

     total magnetization       =    12.99 Bohr mag/cell
     absolute magnetization    =    14.34 Bohr mag/cell

     iteration # 46     ecut=   100.00 Ry     beta= 0.40
     Davidson diagonalization with overlap
     ethr =  1.79E-05,  avg # of iterations =  1.0

     total cpu time spent up to now is    20869.0 secs

     total energy              =   -4954.11100698 Ry
     Harris-Foulkes estimate   =   -4954.11187676 Ry
     estimated scf accuracy    <       0.02326483 Ry

     total magnetization       =    12.57 Bohr mag/cell
     absolute magnetization    =    13.96 Bohr mag/cell

     iteration # 47     ecut=   100.00 Ry     beta= 0.40
     Davidson diagonalization with overlap
     ethr =  7.50E-06,  avg # of iterations =  1.0

     total cpu time spent up to now is    21249.2 secs

     total energy              =   -4954.10999123 Ry
     Harris-Foulkes estimate   =   -4954.11323093 Ry
     estimated scf accuracy    <       0.04398527 Ry

     total magnetization       =    12.60 Bohr mag/cell
     absolute magnetization    =    13.98 Bohr mag/cell

     iteration # 48     ecut=   100.00 Ry     beta= 0.40
     Davidson diagonalization with overlap
     ethr =  7.50E-06,  avg # of iterations =  1.6

     total cpu time spent up to now is    21651.7 secs

     total energy              =   -4954.10807954 Ry
     Harris-Foulkes estimate   =   -4954.11565724 Ry
     estimated scf accuracy    <       0.12638742 Ry

     total magnetization       =    12.91 Bohr mag/cell
     absolute magnetization    =    14.23 Bohr mag/cell

     iteration # 49     ecut=   100.00 Ry     beta= 0.40
     Davidson diagonalization with overlap
     ethr =  7.50E-06,  avg # of iterations =  1.0

     total cpu time spent up to now is    22033.5 secs

     total energy              =   -4954.10971725 Ry
     Harris-Foulkes estimate   =   -4954.11449060 Ry
     estimated scf accuracy    <       0.14574705 Ry

     total magnetization       =    12.65 Bohr mag/cell
     absolute magnetization    =    14.03 Bohr mag/cell

     iteration # 50     ecut=   100.00 Ry     beta= 0.40
     Davidson diagonalization with overlap
     ethr =  7.50E-06,  avg # of iterations =  1.0

     total cpu time spent up to now is    22419.5 secs

     total energy              =   -4954.11117452 Ry
     Harris-Foulkes estimate   =   -4954.11353993 Ry
     estimated scf accuracy    <       0.04968217 Ry

     total magnetization       =    12.43 Bohr mag/cell
     absolute magnetization    =    13.82 Bohr mag/cell

     iteration # 51     ecut=   100.00 Ry     beta= 0.40
     Davidson diagonalization with overlap
     ethr =  7.50E-06,  avg # of iterations =  1.0

     total cpu time spent up to now is    22812.3 secs

     total energy              =   -4954.11170957 Ry
     Harris-Foulkes estimate   =   -4954.11272871 Ry
     estimated scf accuracy    <       0.01207868 Ry

     total magnetization       =    12.62 Bohr mag/cell
     absolute magnetization    =    14.00 Bohr mag/cell

     iteration # 52     ecut=   100.00 Ry     beta= 0.40
     Davidson diagonalization with overlap
     ethr =  3.90E-06,  avg # of iterations =  2.2

     total cpu time spent up to now is    23350.4 secs

     total energy              =   -4954.10652554 Ry
     Harris-Foulkes estimate   =   -4954.11865819 Ry
     estimated scf accuracy    <       0.19660543 Ry

     total magnetization       =    13.20 Bohr mag/cell
     absolute magnetization    =    14.50 Bohr mag/cell

     iteration # 53     ecut=   100.00 Ry     beta= 0.40
     Davidson diagonalization with overlap
     ethr =  3.90E-06,  avg # of iterations =  2.0

     total cpu time spent up to now is    23886.0 secs

     total energy              =   -4954.11244746 Ry
     Harris-Foulkes estimate   =   -4954.11320975 Ry
     estimated scf accuracy    <       0.01367577 Ry

     total magnetization       =    12.64 Bohr mag/cell
     absolute magnetization    =    14.01 Bohr mag/cell

     iteration # 54     ecut=   100.00 Ry     beta= 0.40
     Davidson diagonalization with overlap
     ethr =  3.90E-06,  avg # of iterations =  1.0

     total cpu time spent up to now is    24339.9 secs

     total energy              =   -4954.11205365 Ry
     Harris-Foulkes estimate   =   -4954.11399944 Ry
     estimated scf accuracy    <       0.03092856 Ry

     total magnetization       =    12.61 Bohr mag/cell
     absolute magnetization    =    13.99 Bohr mag/cell

     iteration # 55     ecut=   100.00 Ry     beta= 0.40
     Davidson diagonalization with overlap
     ethr =  3.90E-06,  avg # of iterations =  1.0

     total cpu time spent up to now is    24806.4 secs

     total energy              =   -4954.11237065 Ry
     Harris-Foulkes estimate   =   -4954.11366513 Ry
     estimated scf accuracy    <       0.02445947 Ry

     total magnetization       =    12.45 Bohr mag/cell
     absolute magnetization    =    13.83 Bohr mag/cell

     iteration # 56     ecut=   100.00 Ry     beta= 0.40
     Davidson diagonalization with overlap
     ethr =  3.90E-06,  avg # of iterations =  1.0

     total cpu time spent up to now is    25285.0 secs

     total energy              =   -4954.11328405 Ry
     Harris-Foulkes estimate   =   -4954.11325376 Ry
     estimated scf accuracy    <       0.00585520 Ry

     total magnetization       =    12.65 Bohr mag/cell
     absolute magnetization    =    14.01 Bohr mag/cell

     iteration # 57     ecut=   100.00 Ry     beta= 0.40
     Davidson diagonalization with overlap
     ethr =  1.89E-06,  avg # of iterations =  1.0

     total cpu time spent up to now is    25754.0 secs

     total energy              =   -4954.11343534 Ry
     Harris-Foulkes estimate   =   -4954.11364391 Ry
     estimated scf accuracy    <       0.00555504 Ry

     total magnetization       =    12.62 Bohr mag/cell
     absolute magnetization    =    13.98 Bohr mag/cell

     iteration # 58     ecut=   100.00 Ry     beta= 0.40
     Davidson diagonalization with overlap
     ethr =  1.79E-06,  avg # of iterations =  1.0

     total cpu time spent up to now is    26218.4 secs

     total energy              =   -4954.11304543 Ry
     Harris-Foulkes estimate   =   -4954.11403312 Ry
     estimated scf accuracy    <       0.01194663 Ry

     total magnetization       =    12.53 Bohr mag/cell
     absolute magnetization    =    13.91 Bohr mag/cell

     iteration # 59     ecut=   100.00 Ry     beta= 0.40
     Davidson diagonalization with overlap
     ethr =  1.79E-06,  avg # of iterations =  1.0

     total cpu time spent up to now is    26706.8 secs

     total energy              =   -4954.11277088 Ry
     Harris-Foulkes estimate   =   -4954.11416450 Ry
     estimated scf accuracy    <       0.04600203 Ry

     total magnetization       =    12.61 Bohr mag/cell
     absolute magnetization    =    13.98 Bohr mag/cell

     iteration # 60     ecut=   100.00 Ry     beta= 0.40
     Davidson diagonalization with overlap
     ethr =  1.79E-06,  avg # of iterations =  1.0

     total cpu time spent up to now is    27186.6 secs

     total energy              =   -4954.11290717 Ry
     Harris-Foulkes estimate   =   -4954.11392602 Ry
     estimated scf accuracy    <       0.01837705 Ry

     total magnetization       =    12.73 Bohr mag/cell
     absolute magnetization    =    14.08 Bohr mag/cell

     iteration # 61     ecut=   100.00 Ry     beta= 0.40
     Davidson diagonalization with overlap
     ethr =  1.79E-06,  avg # of iterations =  1.0

     total cpu time spent up to now is    27661.4 secs

     total energy              =   -4954.11340614 Ry
     Harris-Foulkes estimate   =   -4954.11365926 Ry
     estimated scf accuracy    <       0.00773298 Ry

     total magnetization       =    12.61 Bohr mag/cell
     absolute magnetization    =    13.98 Bohr mag/cell

     iteration # 62     ecut=   100.00 Ry     beta= 0.40
     Davidson diagonalization with overlap
     ethr =  1.79E-06,  avg # of iterations =  1.1

     total cpu time spent up to now is    28150.6 secs

     total energy              =   -4954.11277865 Ry
     Harris-Foulkes estimate   =   -4954.11461562 Ry
     estimated scf accuracy    <       0.02911050 Ry

     total magnetization       =    12.67 Bohr mag/cell
     absolute magnetization    =    14.03 Bohr mag/cell

     iteration # 63     ecut=   100.00 Ry     beta= 0.40
     Davidson diagonalization with overlap
     ethr =  1.79E-06,  avg # of iterations =  1.1

     total cpu time spent up to now is    28630.5 secs

     total energy              =   -4954.11361733 Ry
     Harris-Foulkes estimate   =   -4954.11384310 Ry
     estimated scf accuracy    <       0.00434878 Ry

     total magnetization       =    12.60 Bohr mag/cell
     absolute magnetization    =    13.96 Bohr mag/cell

     iteration # 64     ecut=   100.00 Ry     beta= 0.40
     Davidson diagonalization with overlap
     ethr =  1.40E-06,  avg # of iterations =  1.0

     total cpu time spent up to now is    29106.5 secs

     total energy              =   -4954.11367308 Ry
     Harris-Foulkes estimate   =   -4954.11393651 Ry
     estimated scf accuracy    <       0.00531106 Ry

     total magnetization       =    12.57 Bohr mag/cell
     absolute magnetization    =    13.93 Bohr mag/cell

     iteration # 65     ecut=   100.00 Ry     beta= 0.40
     Davidson diagonalization with overlap
     ethr =  1.40E-06,  avg # of iterations =  1.0

     total cpu time spent up to now is    29588.9 secs

     total energy              =   -4954.11349643 Ry
     Harris-Foulkes estimate   =   -4954.11395714 Ry
     estimated scf accuracy    <       0.00422864 Ry

     total magnetization       =    12.62 Bohr mag/cell
     absolute magnetization    =    13.98 Bohr mag/cell

     iteration # 66     ecut=   100.00 Ry     beta= 0.40
     Davidson diagonalization with overlap
     ethr =  1.36E-06,  avg # of iterations =  1.0

     total cpu time spent up to now is    30071.7 secs

     total energy              =   -4954.11364262 Ry
     Harris-Foulkes estimate   =   -4954.11383137 Ry
     estimated scf accuracy    <       0.00560410 Ry

     total magnetization       =    12.54 Bohr mag/cell
     absolute magnetization    =    13.91 Bohr mag/cell

     iteration # 67     ecut=   100.00 Ry     beta= 0.40
     Davidson diagonalization with overlap
     ethr =  1.36E-06,  avg # of iterations =  1.0

     total cpu time spent up to now is    30560.2 secs

     total energy              =   -4954.11369908 Ry
     Harris-Foulkes estimate   =   -4954.11394597 Ry
     estimated scf accuracy    <       0.00423062 Ry

     total magnetization       =    12.68 Bohr mag/cell
     absolute magnetization    =    14.03 Bohr mag/cell

     iteration # 68     ecut=   100.00 Ry     beta= 0.40
     Davidson diagonalization with overlap
     ethr =  1.36E-06,  avg # of iterations =  1.0

     total cpu time spent up to now is    31055.7 secs

     total energy              =   -4954.11371309 Ry
     Harris-Foulkes estimate   =   -4954.11401007 Ry
     estimated scf accuracy    <       0.00432751 Ry

     total magnetization       =    12.55 Bohr mag/cell
     absolute magnetization    =    13.92 Bohr mag/cell

     iteration # 69     ecut=   100.00 Ry     beta= 0.40
     Davidson diagonalization with overlap
     ethr =  1.36E-06,  avg # of iterations =  1.0

     total cpu time spent up to now is    31527.9 secs

     total energy              =   -4954.11384239 Ry
     Harris-Foulkes estimate   =   -4954.11390936 Ry
     estimated scf accuracy    <       0.00250516 Ry

     total magnetization       =    12.58 Bohr mag/cell
     absolute magnetization    =    13.94 Bohr mag/cell

     iteration # 70     ecut=   100.00 Ry     beta= 0.40
     Davidson diagonalization with overlap
     ethr =  8.08E-07,  avg # of iterations =  1.0

     total cpu time spent up to now is    32005.4 secs

     total energy              =   -4954.11382079 Ry
     Harris-Foulkes estimate   =   -4954.11393273 Ry
     estimated scf accuracy    <       0.00144628 Ry

     total magnetization       =    12.58 Bohr mag/cell
     absolute magnetization    =    13.94 Bohr mag/cell

     iteration # 71     ecut=   100.00 Ry     beta= 0.40
     Davidson diagonalization with overlap
     ethr =  4.67E-07,  avg # of iterations =  1.0

     total cpu time spent up to now is    32474.1 secs

     total energy              =   -4954.11381696 Ry
     Harris-Foulkes estimate   =   -4954.11397357 Ry
     estimated scf accuracy    <       0.00368840 Ry

     total magnetization       =    12.60 Bohr mag/cell
     absolute magnetization    =    13.96 Bohr mag/cell

     iteration # 72     ecut=   100.00 Ry     beta= 0.40
     Davidson diagonalization with overlap
     ethr =  4.67E-07,  avg # of iterations =  1.0

     total cpu time spent up to now is    32951.8 secs

     total energy              =   -4954.11373382 Ry
     Harris-Foulkes estimate   =   -4954.11411715 Ry
     estimated scf accuracy    <       0.00773091 Ry

     total magnetization       =    12.53 Bohr mag/cell
     absolute magnetization    =    13.90 Bohr mag/cell

     iteration # 73     ecut=   100.00 Ry     beta= 0.40
     Davidson diagonalization with overlap
     ethr =  4.67E-07,  avg # of iterations =  1.0

     total cpu time spent up to now is    33430.9 secs

     total energy              =   -4954.11390672 Ry
     Harris-Foulkes estimate   =   -4954.11395282 Ry
     estimated scf accuracy    <       0.00090932 Ry

     total magnetization       =    12.58 Bohr mag/cell
     absolute magnetization    =    13.94 Bohr mag/cell

     iteration # 74     ecut=   100.00 Ry     beta= 0.40
     Davidson diagonalization with overlap
     ethr =  2.93E-07,  avg # of iterations =  1.0

     total cpu time spent up to now is    33909.5 secs

     total energy              =   -4954.11392544 Ry
     Harris-Foulkes estimate   =   -4954.11396722 Ry
     estimated scf accuracy    <       0.00069343 Ry

     total magnetization       =    12.57 Bohr mag/cell
     absolute magnetization    =    13.93 Bohr mag/cell

     iteration # 75     ecut=   100.00 Ry     beta= 0.40
     Davidson diagonalization with overlap
     ethr =  2.24E-07,  avg # of iterations =  1.0

     total cpu time spent up to now is    34399.8 secs

     total energy              =   -4954.11392408 Ry
     Harris-Foulkes estimate   =   -4954.11396944 Ry
     estimated scf accuracy    <       0.00062849 Ry

     total magnetization       =    12.56 Bohr mag/cell
     absolute magnetization    =    13.93 Bohr mag/cell

     iteration # 76     ecut=   100.00 Ry     beta= 0.40
     Davidson diagonalization with overlap
     ethr =  2.03E-07,  avg # of iterations =  1.0

     total cpu time spent up to now is    34881.7 secs

     total energy              =   -4954.11393371 Ry
     Harris-Foulkes estimate   =   -4954.11400293 Ry
     estimated scf accuracy    <       0.00212021 Ry

     total magnetization       =    12.61 Bohr mag/cell
     absolute magnetization    =    13.97 Bohr mag/cell

     iteration # 77     ecut=   100.00 Ry     beta= 0.40
     Davidson diagonalization with overlap
     ethr =  2.03E-07,  avg # of iterations =  1.0

     total cpu time spent up to now is    35364.0 secs

     total energy              =   -4954.11396542 Ry
     Harris-Foulkes estimate   =   -4954.11401011 Ry
     estimated scf accuracy    <       0.00096893 Ry

     total magnetization       =    12.53 Bohr mag/cell
     absolute magnetization    =    13.90 Bohr mag/cell

     iteration # 78     ecut=   100.00 Ry     beta= 0.40
     Davidson diagonalization with overlap
     ethr =  2.03E-07,  avg # of iterations =  1.0

     total cpu time spent up to now is    35853.3 secs

     total energy              =   -4954.11393470 Ry
     Harris-Foulkes estimate   =   -4954.11402403 Ry
     estimated scf accuracy    <       0.00079096 Ry

     total magnetization       =    12.57 Bohr mag/cell
     absolute magnetization    =    13.94 Bohr mag/cell

     iteration # 79     ecut=   100.00 Ry     beta= 0.40
     Davidson diagonalization with overlap
     ethr =  2.03E-07,  avg # of iterations =  1.0

     total cpu time spent up to now is    36333.3 secs

     total energy              =   -4954.11397287 Ry
     Harris-Foulkes estimate   =   -4954.11398867 Ry
     estimated scf accuracy    <       0.00091206 Ry

     total magnetization       =    12.56 Bohr mag/cell
     absolute magnetization    =    13.93 Bohr mag/cell

     iteration # 80     ecut=   100.00 Ry     beta= 0.40
     Davidson diagonalization with overlap
     ethr =  2.03E-07,  avg # of iterations =  1.0

     total cpu time spent up to now is    36801.0 secs

     total energy              =   -4954.11398066 Ry
     Harris-Foulkes estimate   =   -4954.11399874 Ry
     estimated scf accuracy    <       0.00037108 Ry

     total magnetization       =    12.57 Bohr mag/cell
     absolute magnetization    =    13.93 Bohr mag/cell

     iteration # 81     ecut=   100.00 Ry     beta= 0.40
     Davidson diagonalization with overlap
     ethr =  1.20E-07,  avg # of iterations =  1.0

     total cpu time spent up to now is    37283.1 secs

     total energy              =   -4954.11396870 Ry
     Harris-Foulkes estimate   =   -4954.11403227 Ry
     estimated scf accuracy    <       0.00149968 Ry

     total magnetization       =    12.54 Bohr mag/cell
     absolute magnetization    =    13.90 Bohr mag/cell

     iteration # 82     ecut=   100.00 Ry     beta= 0.40
     Davidson diagonalization with overlap
     ethr =  1.20E-07,  avg # of iterations =  1.0

     total cpu time spent up to now is    37765.1 secs

     total energy              =   -4954.11396195 Ry
     Harris-Foulkes estimate   =   -4954.11404586 Ry
     estimated scf accuracy    <       0.00159488 Ry

     total magnetization       =    12.56 Bohr mag/cell
     absolute magnetization    =    13.92 Bohr mag/cell

     iteration # 83     ecut=   100.00 Ry     beta= 0.40
     Davidson diagonalization with overlap
     ethr =  1.20E-07,  avg # of iterations =  1.0

     total cpu time spent up to now is    38267.9 secs

     total energy              =   -4954.11399410 Ry
     Harris-Foulkes estimate   =   -4954.11401749 Ry
     estimated scf accuracy    <       0.00040694 Ry

     total magnetization       =    12.55 Bohr mag/cell
     absolute magnetization    =    13.91 Bohr mag/cell

     iteration # 84     ecut=   100.00 Ry     beta= 0.40
     Davidson diagonalization with overlap
     ethr =  1.20E-07,  avg # of iterations =  1.0

     total cpu time spent up to now is    38761.8 secs

     total energy              =   -4954.11400377 Ry
     Harris-Foulkes estimate   =   -4954.11401663 Ry
     estimated scf accuracy    <       0.00030821 Ry

     total magnetization       =    12.56 Bohr mag/cell
     absolute magnetization    =    13.92 Bohr mag/cell

     iteration # 85     ecut=   100.00 Ry     beta= 0.40
     Davidson diagonalization with overlap
     ethr =  9.94E-08,  avg # of iterations =  1.0

     total cpu time spent up to now is    39246.3 secs

     total energy              =   -4954.11399502 Ry
     Harris-Foulkes estimate   =   -4954.11402038 Ry
     estimated scf accuracy    <       0.00026313 Ry

     total magnetization       =    12.56 Bohr mag/cell
     absolute magnetization    =    13.92 Bohr mag/cell

     iteration # 86     ecut=   100.00 Ry     beta= 0.40
     Davidson diagonalization with overlap
     ethr =  8.49E-08,  avg # of iterations =  1.0

     total cpu time spent up to now is    39740.7 secs

     total energy              =   -4954.11397947 Ry
     Harris-Foulkes estimate   =   -4954.11404477 Ry
     estimated scf accuracy    <       0.00148774 Ry

     total magnetization       =    12.52 Bohr mag/cell
     absolute magnetization    =    13.89 Bohr mag/cell

     iteration # 87     ecut=   100.00 Ry     beta= 0.40
     Davidson diagonalization with overlap
     ethr =  8.49E-08,  avg # of iterations =  1.0

     total cpu time spent up to now is    40222.7 secs

     total energy              =   -4954.11401574 Ry
     Harris-Foulkes estimate   =   -4954.11402759 Ry
     estimated scf accuracy    <       0.00028370 Ry

     total magnetization       =    12.55 Bohr mag/cell
     absolute magnetization    =    13.91 Bohr mag/cell

     iteration # 88     ecut=   100.00 Ry     beta= 0.40
     Davidson diagonalization with overlap
     ethr =  8.49E-08,  avg # of iterations =  1.0

     total cpu time spent up to now is    40697.9 secs

     total energy              =   -4954.11400530 Ry
     Harris-Foulkes estimate   =   -4954.11403005 Ry
     estimated scf accuracy    <       0.00018933 Ry

     total magnetization       =    12.54 Bohr mag/cell
     absolute magnetization    =    13.91 Bohr mag/cell

     iteration # 89     ecut=   100.00 Ry     beta= 0.40
     Davidson diagonalization with overlap
     ethr =  6.11E-08,  avg # of iterations =  1.0

     total cpu time spent up to now is    41184.4 secs

     total energy              =   -4954.11401488 Ry
     Harris-Foulkes estimate   =   -4954.11402722 Ry
     estimated scf accuracy    <       0.00060135 Ry

     total magnetization       =    12.55 Bohr mag/cell
     absolute magnetization    =    13.92 Bohr mag/cell

     iteration # 90     ecut=   100.00 Ry     beta= 0.40
     Davidson diagonalization with overlap
     ethr =  6.11E-08,  avg # of iterations =  1.0

     total cpu time spent up to now is    41681.0 secs

     total energy              =   -4954.11402172 Ry
     Harris-Foulkes estimate   =   -4954.11402765 Ry
     estimated scf accuracy    <       0.00008808 Ry

     total magnetization       =    12.54 Bohr mag/cell
     absolute magnetization    =    13.90 Bohr mag/cell

     iteration # 91     ecut=   100.00 Ry     beta= 0.40
     Davidson diagonalization with overlap
     ethr =  2.84E-08,  avg # of iterations =  1.0

     total cpu time spent up to now is    42176.8 secs

     total energy              =   -4954.11402089 Ry
     Harris-Foulkes estimate   =   -4954.11403681 Ry
     estimated scf accuracy    <       0.00038976 Ry

     total magnetization       =    12.56 Bohr mag/cell
     absolute magnetization    =    13.92 Bohr mag/cell

     iteration # 92     ecut=   100.00 Ry     beta= 0.40
     Davidson diagonalization with overlap
     ethr =  2.84E-08,  avg # of iterations =  1.0

     total cpu time spent up to now is    42659.4 secs

     total energy              =   -4954.11401666 Ry
     Harris-Foulkes estimate   =   -4954.11403958 Ry
     estimated scf accuracy    <       0.00026395 Ry

     total magnetization       =    12.54 Bohr mag/cell
     absolute magnetization    =    13.90 Bohr mag/cell

     iteration # 93     ecut=   100.00 Ry     beta= 0.40
     Davidson diagonalization with overlap
     ethr =  2.84E-08,  avg # of iterations =  1.0

     total cpu time spent up to now is    43149.2 secs

     total energy              =   -4954.11401447 Ry
     Harris-Foulkes estimate   =   -4954.11404078 Ry
     estimated scf accuracy    <       0.00054784 Ry

     total magnetization       =    12.55 Bohr mag/cell
     absolute magnetization    =    13.91 Bohr mag/cell

     iteration # 94     ecut=   100.00 Ry     beta= 0.40
     Davidson diagonalization with overlap
     ethr =  2.84E-08,  avg # of iterations =  1.0

     total cpu time spent up to now is    43632.8 secs

     total energy              =   -4954.11402642 Ry
     Harris-Foulkes estimate   =   -4954.11403221 Ry
     estimated scf accuracy    <       0.00012010 Ry

     total magnetization       =    12.54 Bohr mag/cell
     absolute magnetization    =    13.90 Bohr mag/cell

     iteration # 95     ecut=   100.00 Ry     beta= 0.40
     Davidson diagonalization with overlap
     ethr =  2.84E-08,  avg # of iterations =  1.0

     total cpu time spent up to now is    44124.0 secs

     total energy              =   -4954.11403127 Ry
     Harris-Foulkes estimate   =   -4954.11403223 Ry
     estimated scf accuracy    <       0.00009291 Ry

     total magnetization       =    12.54 Bohr mag/cell
     absolute magnetization    =    13.90 Bohr mag/cell

     iteration # 96     ecut=   100.00 Ry     beta= 0.40
     Davidson diagonalization with overlap
     ethr =  2.84E-08,  avg # of iterations =  1.0

     total cpu time spent up to now is    44611.6 secs

     total energy              =   -4954.11402795 Ry
     Harris-Foulkes estimate   =   -4954.11404023 Ry
     estimated scf accuracy    <       0.00018903 Ry

     total magnetization       =    12.54 Bohr mag/cell
     absolute magnetization    =    13.91 Bohr mag/cell

     iteration # 97     ecut=   100.00 Ry     beta= 0.40
     Davidson diagonalization with overlap
     ethr =  2.84E-08,  avg # of iterations =  1.0

     total cpu time spent up to now is    45094.9 secs

     total energy              =   -4954.11403043 Ry
     Harris-Foulkes estimate   =   -4954.11403854 Ry
     estimated scf accuracy    <       0.00015307 Ry

     total magnetization       =    12.53 Bohr mag/cell
     absolute magnetization    =    13.89 Bohr mag/cell

     iteration # 98     ecut=   100.00 Ry     beta= 0.40
     Davidson diagonalization with overlap
     ethr =  2.84E-08,  avg # of iterations =  1.0

     total cpu time spent up to now is    45570.9 secs

     total energy              =   -4954.11402861 Ry
     Harris-Foulkes estimate   =   -4954.11403696 Ry
     estimated scf accuracy    <       0.00006489 Ry

     total magnetization       =    12.54 Bohr mag/cell
     absolute magnetization    =    13.90 Bohr mag/cell

     iteration # 99     ecut=   100.00 Ry     beta= 0.40
     Davidson diagonalization with overlap
     ethr =  2.09E-08,  avg # of iterations =  1.1

     total cpu time spent up to now is    46073.1 secs

     total energy              =   -4954.11401470 Ry
     Harris-Foulkes estimate   =   -4954.11405194 Ry
     estimated scf accuracy    <       0.00110187 Ry

     total magnetization       =    12.53 Bohr mag/cell
     absolute magnetization    =    13.89 Bohr mag/cell

     iteration #100     ecut=   100.00 Ry     beta= 0.40
     Davidson diagonalization with overlap
     ethr =  2.09E-08,  avg # of iterations =  1.1
 
     Magnetic moment per site:
     atom:    1    charge:    7.2651    magn:   -0.0123    constr:    0.0000
     atom:    2    charge:    7.3072    magn:   -0.0051    constr:    0.0000
     atom:    3    charge:   11.0691    magn:    1.9191    constr:    0.0000
     atom:    4    charge:   11.0955    magn:    2.4119    constr:    0.0000
     atom:    5    charge:    5.3297    magn:   -0.0318    constr:    0.0000
     atom:    6    charge:    5.3183    magn:   -0.0901    constr:    0.0000
     atom:    7    charge:    5.3611    magn:   -0.0367    constr:    0.0000
     atom:    8    charge:    5.3824    magn:   -0.0010    constr:    0.0000
     atom:    9    charge:    5.4084    magn:   -0.0167    constr:    0.0000
     atom:   10    charge:    5.4290    magn:    0.0065    constr:    0.0000
     atom:   11    charge:    5.3789    magn:   -0.0134    constr:    0.0000
     atom:   12    charge:   15.5018    magn:    0.6083    constr:    0.0000
     atom:   13    charge:   15.4849    magn:    0.7316    constr:    0.0000
     atom:   14    charge:   15.4969    magn:    0.7142    constr:    0.0000
     atom:   15    charge:   15.5626    magn:    0.4298    constr:    0.0000
     atom:   16    charge:   15.5061    magn:    0.8279    constr:    0.0000
     atom:   17    charge:   15.5269    magn:    0.6787    constr:    0.0000
     atom:   18    charge:   15.5204    magn:    0.7385    constr:    0.0000
     atom:   19    charge:   15.6567    magn:    0.3392    constr:    0.0000
     atom:   20    charge:   15.5847    magn:    0.5921    constr:    0.0000
     atom:   21    charge:   15.5559    magn:    0.4630    constr:    0.0000
     atom:   22    charge:   15.4898    magn:    0.6981    constr:    0.0000
     atom:   23    charge:   15.4769    magn:    0.7896    constr:    0.0000

     total cpu time spent up to now is    46576.3 secs

     total energy              =   -4954.11403379 Ry
     Harris-Foulkes estimate   =   -4954.11403552 Ry
     estimated scf accuracy    <       0.00004959 Ry

     total magnetization       =    12.54 Bohr mag/cell
     absolute magnetization    =    13.90 Bohr mag/cell

     iteration #101     ecut=   100.00 Ry     beta= 0.40
     Davidson diagonalization with overlap
     ethr =  1.60E-08,  avg # of iterations =  1.0

     total cpu time spent up to now is    47053.8 secs

     total energy              =   -4954.11403325 Ry
     Harris-Foulkes estimate   =   -4954.11403941 Ry
     estimated scf accuracy    <       0.00010757 Ry

     total magnetization       =    12.53 Bohr mag/cell
     absolute magnetization    =    13.89 Bohr mag/cell

     iteration #102     ecut=   100.00 Ry     beta= 0.40
     Davidson diagonalization with overlap
     ethr =  1.60E-08,  avg # of iterations =  1.0

     total cpu time spent up to now is    47532.0 secs

     total energy              =   -4954.11403583 Ry
     Harris-Foulkes estimate   =   -4954.11403855 Ry
     estimated scf accuracy    <       0.00006764 Ry

     total magnetization       =    12.53 Bohr mag/cell
     absolute magnetization    =    13.89 Bohr mag/cell

     iteration #103     ecut=   100.00 Ry     beta= 0.40
     Davidson diagonalization with overlap
     ethr =  1.60E-08,  avg # of iterations =  1.0

     total cpu time spent up to now is    48005.6 secs

     total energy              =   -4954.11403416 Ry
     Harris-Foulkes estimate   =   -4954.11403863 Ry
     estimated scf accuracy    <       0.00004713 Ry

     total magnetization       =    12.53 Bohr mag/cell
     absolute magnetization    =    13.89 Bohr mag/cell

     iteration #104     ecut=   100.00 Ry     beta= 0.40
     Davidson diagonalization with overlap
     ethr =  1.52E-08,  avg # of iterations =  1.0

     total cpu time spent up to now is    48478.1 secs

     total energy              =   -4954.11403129 Ry
     Harris-Foulkes estimate   =   -4954.11404165 Ry
     estimated scf accuracy    <       0.00020863 Ry

     total magnetization       =    12.54 Bohr mag/cell
     absolute magnetization    =    13.90 Bohr mag/cell

     iteration #105     ecut=   100.00 Ry     beta= 0.40
     Davidson diagonalization with overlap
     ethr =  1.52E-08,  avg # of iterations =  1.0

     total cpu time spent up to now is    48948.0 secs

     total energy              =   -4954.11403750 Ry
     Harris-Foulkes estimate   =   -4954.11403736 Ry
     estimated scf accuracy    <       0.00002698 Ry

     total magnetization       =    12.53 Bohr mag/cell
     absolute magnetization    =    13.90 Bohr mag/cell

     iteration #106     ecut=   100.00 Ry     beta= 0.40
     Davidson diagonalization with overlap
     ethr =  8.70E-09,  avg # of iterations =  1.0

     total cpu time spent up to now is    49427.5 secs

     total energy              =   -4954.11403733 Ry
     Harris-Foulkes estimate   =   -4954.11403911 Ry
     estimated scf accuracy    <       0.00003019 Ry

     total magnetization       =    12.53 Bohr mag/cell
     absolute magnetization    =    13.90 Bohr mag/cell

     iteration #107     ecut=   100.00 Ry     beta= 0.40
     Davidson diagonalization with overlap
     ethr =  8.70E-09,  avg # of iterations =  1.0

     total cpu time spent up to now is    49908.0 secs

     total energy              =   -4954.11403719 Ry
     Harris-Foulkes estimate   =   -4954.11403903 Ry
     estimated scf accuracy    <       0.00002117 Ry

     total magnetization       =    12.53 Bohr mag/cell
     absolute magnetization    =    13.89 Bohr mag/cell

     iteration #108     ecut=   100.00 Ry     beta= 0.40
     Davidson diagonalization with overlap
     ethr =  6.83E-09,  avg # of iterations =  1.0

     total cpu time spent up to now is    50395.3 secs

     total energy              =   -4954.11403792 Ry
     Harris-Foulkes estimate   =   -4954.11403881 Ry
     estimated scf accuracy    <       0.00002460 Ry

     total magnetization       =    12.53 Bohr mag/cell
     absolute magnetization    =    13.89 Bohr mag/cell

     iteration #109     ecut=   100.00 Ry     beta= 0.40
     Davidson diagonalization with overlap
     ethr =  6.83E-09,  avg # of iterations =  1.0

     total cpu time spent up to now is    50865.4 secs

     total energy              =   -4954.11403763 Ry
     Harris-Foulkes estimate   =   -4954.11403956 Ry
     estimated scf accuracy    <       0.00002104 Ry

     total magnetization       =    12.53 Bohr mag/cell
     absolute magnetization    =    13.90 Bohr mag/cell

     iteration #110     ecut=   100.00 Ry     beta= 0.40
     Davidson diagonalization with overlap
     ethr =  6.79E-09,  avg # of iterations =  1.0

     total cpu time spent up to now is    51341.5 secs

     total energy              =   -4954.11403750 Ry
     Harris-Foulkes estimate   =   -4954.11403999 Ry
     estimated scf accuracy    <       0.00007141 Ry

     total magnetization       =    12.53 Bohr mag/cell
     absolute magnetization    =    13.89 Bohr mag/cell

     iteration #111     ecut=   100.00 Ry     beta= 0.40
     Davidson diagonalization with overlap
     ethr =  6.79E-09,  avg # of iterations =  1.0

     total cpu time spent up to now is    51844.2 secs

     total energy              =   -4954.11403785 Ry
     Harris-Foulkes estimate   =   -4954.11403996 Ry
     estimated scf accuracy    <       0.00004829 Ry

     total magnetization       =    12.53 Bohr mag/cell
     absolute magnetization    =    13.89 Bohr mag/cell

     iteration #112     ecut=   100.00 Ry     beta= 0.40
     Davidson diagonalization with overlap
     ethr =  6.79E-09,  avg # of iterations =  1.0

     total cpu time spent up to now is    52327.0 secs

     total energy              =   -4954.11403829 Ry
     Harris-Foulkes estimate   =   -4954.11403981 Ry
     estimated scf accuracy    <       0.00003220 Ry

     total magnetization       =    12.53 Bohr mag/cell
     absolute magnetization    =    13.89 Bohr mag/cell

     iteration #113     ecut=   100.00 Ry     beta= 0.40
     Davidson diagonalization with overlap
     ethr =  6.79E-09,  avg # of iterations =  1.0

     total cpu time spent up to now is    52791.1 secs

     total energy              =   -4954.11403889 Ry
     Harris-Foulkes estimate   =   -4954.11404024 Ry
     estimated scf accuracy    <       0.00003743 Ry

     total magnetization       =    12.53 Bohr mag/cell
     absolute magnetization    =    13.89 Bohr mag/cell

     iteration #114     ecut=   100.00 Ry     beta= 0.40
     Davidson diagonalization with overlap
     ethr =  6.79E-09,  avg # of iterations =  1.0

     total cpu time spent up to now is    53270.5 secs

     total energy              =   -4954.11403768 Ry
     Harris-Foulkes estimate   =   -4954.11403992 Ry
     estimated scf accuracy    <       0.00001258 Ry

     total magnetization       =    12.53 Bohr mag/cell
     absolute magnetization    =    13.89 Bohr mag/cell

     iteration #115     ecut=   100.00 Ry     beta= 0.40
     Davidson diagonalization with overlap
     ethr =  4.06E-09,  avg # of iterations =  1.0

     total cpu time spent up to now is    53747.8 secs

     total energy              =   -4954.11403548 Ry
     Harris-Foulkes estimate   =   -4954.11404221 Ry
     estimated scf accuracy    <       0.00017066 Ry

     total magnetization       =    12.53 Bohr mag/cell
     absolute magnetization    =    13.89 Bohr mag/cell

     iteration #116     ecut=   100.00 Ry     beta= 0.40
     Davidson diagonalization with overlap
     ethr =  4.06E-09,  avg # of iterations =  1.8

     total cpu time spent up to now is    54269.0 secs

     total energy              =   -4954.11403831 Ry
     Harris-Foulkes estimate   =   -4954.11404052 Ry
     estimated scf accuracy    <       0.00004023 Ry

     total magnetization       =    12.53 Bohr mag/cell
     absolute magnetization    =    13.89 Bohr mag/cell

     iteration #117     ecut=   100.00 Ry     beta= 0.40
     Davidson diagonalization with overlap
     ethr =  4.06E-09,  avg # of iterations =  1.0

     total cpu time spent up to now is    54742.7 secs

     total energy              =   -4954.11403911 Ry
     Harris-Foulkes estimate   =   -4954.11404005 Ry
     estimated scf accuracy    <       0.00001715 Ry

     total magnetization       =    12.52 Bohr mag/cell
     absolute magnetization    =    13.89 Bohr mag/cell

     iteration #118     ecut=   100.00 Ry     beta= 0.40
     Davidson diagonalization with overlap
     ethr =  4.06E-09,  avg # of iterations =  1.0

     total cpu time spent up to now is    55180.4 secs

     total energy              =   -4954.11403933 Ry
     Harris-Foulkes estimate   =   -4954.11403987 Ry
     estimated scf accuracy    <       0.00000816 Ry

     total magnetization       =    12.53 Bohr mag/cell
     absolute magnetization    =    13.89 Bohr mag/cell

     iteration #119     ecut=   100.00 Ry     beta= 0.40
     Davidson diagonalization with overlap
     ethr =  2.63E-09,  avg # of iterations =  1.0

     total cpu time spent up to now is    55592.1 secs

     total energy              =   -4954.11403913 Ry
     Harris-Foulkes estimate   =   -4954.11404029 Ry
     estimated scf accuracy    <       0.00001952 Ry

     total magnetization       =    12.53 Bohr mag/cell
     absolute magnetization    =    13.89 Bohr mag/cell

     iteration #120     ecut=   100.00 Ry     beta= 0.40
     Davidson diagonalization with overlap
     ethr =  2.63E-09,  avg # of iterations =  1.0

     total cpu time spent up to now is    56011.0 secs

     total energy              =   -4954.11403945 Ry
     Harris-Foulkes estimate   =   -4954.11403996 Ry
     estimated scf accuracy    <       0.00001444 Ry

     total magnetization       =    12.53 Bohr mag/cell
     absolute magnetization    =    13.89 Bohr mag/cell

     iteration #121     ecut=   100.00 Ry     beta= 0.40
     Davidson diagonalization with overlap
     ethr =  2.63E-09,  avg # of iterations =  1.0

     total cpu time spent up to now is    56423.1 secs

     total energy              =   -4954.11403968 Ry
     Harris-Foulkes estimate   =   -4954.11403984 Ry
     estimated scf accuracy    <       0.00000487 Ry

     total magnetization       =    12.53 Bohr mag/cell
     absolute magnetization    =    13.89 Bohr mag/cell

     iteration #122     ecut=   100.00 Ry     beta= 0.40
     Davidson diagonalization with overlap
     ethr =  1.57E-09,  avg # of iterations =  1.0

     total cpu time spent up to now is    56854.0 secs

     total energy              =   -4954.11403940 Ry
     Harris-Foulkes estimate   =   -4954.11404037 Ry
     estimated scf accuracy    <       0.00001392 Ry

     total magnetization       =    12.53 Bohr mag/cell
     absolute magnetization    =    13.89 Bohr mag/cell

     iteration #123     ecut=   100.00 Ry     beta= 0.40
     Davidson diagonalization with overlap
     ethr =  1.57E-09,  avg # of iterations =  1.0

     total cpu time spent up to now is    57264.3 secs

     total energy              =   -4954.11403993 Ry
     Harris-Foulkes estimate   =   -4954.11403994 Ry
     estimated scf accuracy    <       0.00000164 Ry

     total magnetization       =    12.52 Bohr mag/cell
     absolute magnetization    =    13.89 Bohr mag/cell

     iteration #124     ecut=   100.00 Ry     beta= 0.40
     Davidson diagonalization with overlap
     ethr =  5.29E-10,  avg # of iterations =  1.0
 
     Magnetic moment per site:
     atom:    1    charge:    7.2651    magn:   -0.0119    constr:    0.0000
     atom:    2    charge:    7.3072    magn:   -0.0048    constr:    0.0000
     atom:    3    charge:   11.0695    magn:    1.9284    constr:    0.0000
     atom:    4    charge:   11.0952    magn:    2.4131    constr:    0.0000
     atom:    5    charge:    5.3297    magn:   -0.0332    constr:    0.0000
     atom:    6    charge:    5.3183    magn:   -0.0913    constr:    0.0000
     atom:    7    charge:    5.3611    magn:   -0.0384    constr:    0.0000
     atom:    8    charge:    5.3824    magn:   -0.0016    constr:    0.0000
     atom:    9    charge:    5.4084    magn:   -0.0168    constr:    0.0000
     atom:   10    charge:    5.4291    magn:    0.0062    constr:    0.0000
     atom:   11    charge:    5.3789    magn:   -0.0136    constr:    0.0000
     atom:   12    charge:   15.5018    magn:    0.6032    constr:    0.0000
     atom:   13    charge:   15.4849    magn:    0.7300    constr:    0.0000
     atom:   14    charge:   15.4968    magn:    0.7125    constr:    0.0000
     atom:   15    charge:   15.5630    magn:    0.4226    constr:    0.0000
     atom:   16    charge:   15.5062    magn:    0.8269    constr:    0.0000
     atom:   17    charge:   15.5266    magn:    0.6764    constr:    0.0000
     atom:   18    charge:   15.5205    magn:    0.7369    constr:    0.0000
     atom:   19    charge:   15.6572    magn:    0.3379    constr:    0.0000
     atom:   20    charge:   15.5846    magn:    0.5909    constr:    0.0000
     atom:   21    charge:   15.5563    magn:    0.4577    constr:    0.0000
     atom:   22    charge:   15.4897    magn:    0.6960    constr:    0.0000
     atom:   23    charge:   15.4770    magn:    0.7879    constr:    0.0000

     total cpu time spent up to now is    57647.4 secs

     End of self-consistent calculation

 ------ SPIN UP ------------


          k = 0.0000 0.0000 0.0000 ( 30953 PWs)   bands (ev):

   -89.9174 -89.8691 -89.8582 -89.8370 -89.7780 -89.7601 -89.7199 -89.7182
   -89.6808 -89.6651 -89.6550 -89.5877 -59.5357 -59.3935 -50.5866 -50.5563
   -50.5174 -50.4964 -50.4895 -50.4870 -50.4826 -50.4179 -50.4108 -50.4085
   -50.3934 -50.3817 -50.3540 -50.3517 -50.3416 -50.3297 -50.3142 -50.2996
   -50.2859 -50.2822 -50.2583 -50.2537 -50.2442 -50.2301 -50.2182 -50.2102
   -50.1917 -50.1786 -50.1585 -50.1448 -50.1310 -50.1227 -50.0974 -50.0464
   -50.0384 -49.9474 -35.5003 -35.0496 -31.0482 -30.9102 -30.8747 -30.8656
   -30.8586 -30.7382 -13.7793 -13.7009 -13.5403 -13.4702 -13.3179 -12.9964
    -5.1560  -4.7606  -4.5214  -4.2710  -3.9525  -3.7471  -3.3527   5.7486
     6.8205   6.9342   7.1892   7.7227   7.9162   8.0929   8.1347   8.2012
     8.4376   8.5324   8.7218   8.8740   8.9227   9.0857   9.1789   9.2247
     9.3021   9.3583   9.4676   9.5363   9.5874   9.6991   9.7051   9.7221
     9.9010   9.9080   9.9345   9.9892  10.0027  10.0478  10.0974  10.2234
    10.2295  10.3056  10.3409  10.3758  10.4671  10.5569  10.6112  10.7188
    10.8968  10.9865  11.0176  11.1035  11.1713  11.2292  11.3055  11.3248
    11.3907  11.4530  11.5056  11.5173  11.5767  11.6684  11.7311  11.8151
    11.8593  11.9573  11.9767  12.0854  12.0987  12.1540  12.2035  12.2392
    12.2729  12.2950  12.3592  12.3969  12.4211  12.4863  12.5208  12.5727
    12.6086  12.6284  12.6737  12.7068  12.7285  12.7619  12.7863  12.8345
    12.8723  12.8829  12.9220  13.0323  13.0795  13.1904  13.2427  13.3711
    13.5397  13.7524  13.8371  14.1798  14.2778  14.5944  14.8229  14.8992
    15.1958  15.6764  15.7500  15.7705  15.9730  16.4885  16.9319  17.0388
    17.6871  18.0411  18.0886  18.5894  18.6686  19.4635  19.8882  20.2691
    20.6150  20.6648

     occupation numbers 
     1.0000   1.0000   1.0000   1.0000   1.0000   1.0000   1.0000   1.0000
     1.0000   1.0000   1.0000   1.0000   1.0000   1.0000   1.0000   1.0000
     1.0000   1.0000   1.0000   1.0000   1.0000   1.0000   1.0000   1.0000
     1.0000   1.0000   1.0000   1.0000   1.0000   1.0000   1.0000   1.0000
     1.0000   1.0000   1.0000   1.0000   1.0000   1.0000   1.0000   1.0000
     1.0000   1.0000   1.0000   1.0000   1.0000   1.0000   1.0000   1.0000
     1.0000   1.0000   1.0000   1.0000   1.0000   1.0000   1.0000   1.0000
     1.0000   1.0000   1.0000   1.0000   1.0000   1.0000   1.0000   1.0000
     1.0000   1.0000   1.0000   1.0000   1.0000   1.0000   1.0000   1.0000
     1.0000   1.0000   1.0000   1.0000   1.0000   1.0000   1.0000   1.0000
     1.0000   1.0000   1.0000   1.0000   1.0000   1.0000   1.0000   1.0000
     1.0000   1.0000   1.0000   1.0000   1.0000   1.0000   1.0000   1.0000
     1.0000   1.0000   1.0000   1.0000   1.0000   1.0000   1.0000   1.0000
     1.0000   1.0000   1.0000   1.0000   1.0000   1.0000   1.0000   1.0000
     1.0000   1.0000   1.0000   1.0000   1.0000   1.0000   1.0000   1.0000
     1.0000   1.0000   1.0000   1.0000   1.0000   1.0000   1.0000   1.0000
     1.0000   1.0000   1.0000   1.0000   1.0000   1.0000   1.0000   1.0000
     1.0000   1.0000   1.0000   1.0000   1.0000   1.0000   1.0000   1.0000
     1.0000   1.0000   1.0000   1.0000   1.0000   1.0000   1.0001   1.0003
     1.0008   1.0010   1.0024   1.0172   1.0325   1.0794   1.0791   0.8637
[...]
     0.0000   0.0000   0.0000   0.0000   0.0000   0.0000   0.0000   0.0000
     0.0000   0.0000   0.0000   0.0000   0.0000   0.0000   0.0000   0.0000
     0.0000   0.0000   0.0000   0.0000   0.0000   0.0000   0.0000   0.0000
     0.0000   0.0000

     the Fermi energy is    13.5005 ev

!    total energy              =   -4954.11403955 Ry
     Harris-Foulkes estimate   =   -4954.11404000 Ry
     estimated scf accuracy    <       0.00000094 Ry

     The total energy is the sum of the following terms:

     one-electron contribution =   -3894.50787522 Ry
     hartree contribution      =    2110.16323245 Ry
     xc contribution           =    -553.10960542 Ry
     ewald contribution        =   -2552.85697386 Ry
     one-center paw contrib.   =     -63.80550194 Ry
      -> PAW hartree energy AE =       0.00000000 Ry
      -> PAW hartree energy PS =       0.00000000 Ry
      -> PAW xc energy AE      =       0.00000000 Ry
      -> PAW xc energy PS      =       0.00000000 Ry
      -> total E_H with PAW    =    2110.16323245 Ry
      -> total E_XC with PAW   =    -553.10960542 Ry
     smearing contrib. (-TS)   =       0.00268444 Ry

     total magnetization       =    12.53 Bohr mag/cell
     absolute magnetization    =    13.89 Bohr mag/cell

     convergence has been achieved in 124 iterations

     Forces acting on atoms (cartesian axes, Ry/au):

     atom    1 type  4   force =     0.07169180   -0.00250359    0.13616213
     atom    2 type  4   force =    -0.02322492   -0.00653638    0.24332674
     atom    3 type  1   force =     0.01484345   -0.00012631   -0.15177118
     atom    4 type  1   force =    -0.11617031    0.00180978   -0.10422352
     atom    5 type  3   force =    -0.00907903    0.00066564    0.04098184
     atom    6 type  3   force =     0.13154264   -0.00156014    0.05864495
     atom    7 type  3   force =    -0.05932167    0.00060763    0.05556700
     atom    8 type  3   force =    -0.02191571   -0.00046655   -0.02932004
     atom    9 type  3   force =     0.03079536    0.00109992   -0.02813211
     atom   10 type  3   force =    -0.00681076    0.00147181   -0.03862623
     atom   11 type  3   force =    -0.01507495   -0.00048417    0.06033454
     atom   12 type  2   force =     0.04597801   -0.02354448   -0.06476393
     atom   13 type  2   force =     0.00382934   -0.01399585   -0.03486069
     atom   14 type  2   force =    -0.00761617   -0.01275894   -0.04304547
     atom   15 type  2   force =    -0.01194072    0.01516493    0.08399138
     atom   16 type  2   force =     0.00335164    0.01336304    0.01464809
     atom   17 type  2   force =    -0.03155597    0.02021641    0.01293583
     atom   18 type  2   force =     0.00912883   -0.01137815   -0.01780607
     atom   19 type  2   force =     0.02395549   -0.00944640   -0.21095771
     atom   20 type  2   force =    -0.06931323   -0.01876457   -0.07576361
     atom   21 type  2   force =     0.05863009    0.02221581    0.01914303
     atom   22 type  2   force =    -0.00640866    0.01228981    0.02481652
     atom   23 type  2   force =    -0.01531456    0.01266075    0.04871852
     The non-local contrib.  to forces
     atom    1 type  4   force =     0.00165852    0.00089740    0.00055645
     atom    2 type  4   force =     0.01672903    0.00370366   -0.13162039
     atom    3 type  1   force =    -0.04719239    0.00097799    0.31834818
     atom    4 type  1   force =     0.12495725    0.00258308    0.12791586
     atom    5 type  3   force =    -0.02307194    0.00783545    0.10196374
     atom    6 type  3   force =     0.67367050    0.00295045    0.17909584
     atom    7 type  3   force =    -0.36624660    0.01721505    0.34740256
     atom    8 type  3   force =    -0.46926036   -0.01068226   -0.17712170
     atom    9 type  3   force =    -0.13517880    0.00238584   -0.16355807
     atom   10 type  3   force =     0.23142369    0.00688510   -0.36902120
     atom   11 type  3   force =     0.33462877   -0.01213055    0.32209596
     atom   12 type  2   force =    -0.05125190    0.00255054   -0.12333599
     atom   13 type  2   force =     0.01409364   -0.00603013    0.08197545
     atom   14 type  2   force =    -0.00366052   -0.01497261   -0.06723076
     atom   15 type  2   force =     0.01950048    0.01809059   -0.76901683
     atom   16 type  2   force =    -0.01607617    0.01407966   -0.44384521
     atom   17 type  2   force =     0.00778409    0.01298510   -0.30253725
     atom   18 type  2   force =    -0.04635039   -0.02119816    0.47566914
     atom   19 type  2   force =    -0.16469096   -0.05932318    1.74064184
     atom   20 type  2   force =     0.13915783   -0.02271423    0.83460047
     atom   21 type  2   force =    -0.07269236    0.01361958    0.34304140
     atom   22 type  2   force =    -0.05100298    0.01419017   -0.03347878
     atom   23 type  2   force =     0.12367080    0.01151934    0.05532243
     The ionic contribution  to forces
     atom    1 type  4   force =    -3.44391581   -0.43028141   41.02045265
     atom    2 type  4   force =     0.21419051   -0.61312079   36.66558792
     atom    3 type  1   force =     1.75753422    0.45343425  -42.66452524
     atom    4 type  1   force =     6.18540554    0.61212802  -39.04302642
     atom    5 type  3   force =    -5.61379119   -0.22487614  -15.44667628
     atom    6 type  3   force =    -2.52148688   -0.25302990  -15.62645876
     atom    7 type  3   force =     4.97300788   -0.32161884  -17.12030117
     atom    8 type  3   force =     2.79345786    0.24345376   15.19525565
     atom    9 type  3   force =     2.47201728    0.21473340   15.37441663
     atom   10 type  3   force =    -1.72784052    0.17029832   16.04585461
     atom   11 type  3   force =    -3.68824526    0.27987877   17.95238222
     atom   12 type  2   force =     0.64795831   -4.12511625  -70.20992854
     atom   13 type  2   force =     6.82938455   -3.59730126  -49.76715707
     atom   14 type  2   force =    -1.74336346   -3.93155369  -53.53173306
     atom   15 type  2   force =    -3.95710606    3.61795767  -43.89830089
     atom   16 type  2   force =    -0.93834778    3.60804790  -60.76436506
     atom   17 type  2   force =    -1.96397251    4.19496430  -66.68742000
     atom   18 type  2   force =     7.67268914   -3.77024921   61.36670617
     atom   19 type  2   force =     4.42159369   -3.31419205   44.21214805
     atom   20 type  2   force =   -17.04495391   -4.23457007   59.81448464
     atom   21 type  2   force =     7.46203015    4.19502336   55.09186105
     atom   22 type  2   force =    -2.16860224    3.60801309   53.33865511
     atom   23 type  2   force =    -0.61764352    3.61797676   58.68208780
     The local contribution  to forces
     atom    1 type  4   force =     3.51733669    0.42699930  -40.88849045
     atom    2 type  4   force =    -0.25338904    0.60315508  -36.29743372
     atom    3 type  1   force =    -1.69756112   -0.45456275   42.20616359
     atom    4 type  1   force =    -6.42409269   -0.61291333   38.81744272
     atom    5 type  3   force =     5.62825005    0.21778594   15.38788883
     atom    6 type  3   force =     1.98672057    0.24854083   15.50881832
     atom    7 type  3   force =    -4.67073582    0.30518756   16.83295973
     atom    8 type  3   force =    -2.34951423   -0.23335818  -15.05025808
     atom    9 type  3   force =    -2.30655151   -0.21598965  -15.24170110
     atom   10 type  3   force =     1.49050031   -0.17562723  -15.71974698
     atom   11 type  3   force =     3.34104551   -0.26836717  -18.21123324
     atom   12 type  2   force =    -0.55089536    4.09958653   70.27132132
     atom   13 type  2   force =    -6.83937094    3.58983146   49.65528027
     atom   14 type  2   force =     1.73922097    3.93420262   53.56034153
     atom   15 type  2   force =     3.92807192   -3.62099194   44.74144994
     atom   16 type  2   force =     0.95677059   -3.60896212   61.22338780
     atom   17 type  2   force =     1.92430264   -4.18769710   66.99823668
     atom   18 type  2   force =    -7.61823141    3.77989719  -61.85838758
     atom   19 type  2   force =    -4.23549476    3.36342729  -46.14631575
     atom   20 type  2   force =    16.84039151    4.23812776  -60.71545900
     atom   21 type  2   force =    -7.33101073   -4.18645005  -55.41475720
     atom   22 type  2   force =     2.21243162   -3.61011313  -53.28412294
     atom   23 type  2   force =     0.47832557   -3.61709159  -58.69199898
     The core correction contribution to forces
     atom    1 type  4   force =    -0.00268746   -0.00011805    0.00320083
     atom    2 type  4   force =    -0.00122352   -0.00026707    0.00614061
     atom    3 type  1   force =     0.00218429    0.00002754   -0.01183675
     atom    4 type  1   force =    -0.00290685    0.00001697   -0.00739496
     atom    5 type  3   force =     0.00006335   -0.00008183   -0.00242119
     atom    6 type  3   force =    -0.00793879   -0.00002454   -0.00313444
     atom    7 type  3   force =     0.00434475   -0.00017893   -0.00468408
     atom    8 type  3   force =     0.00371487    0.00011911    0.00266351
     atom    9 type  3   force =     0.00015079   -0.00003299    0.00219340
     atom   10 type  3   force =    -0.00106289   -0.00008593    0.00424103
     atom   11 type  3   force =    -0.00228056    0.00013404   -0.00335397
     atom   12 type  2   force =     0.00207410   -0.00057934   -0.00252048
     atom   13 type  2   force =    -0.00062627   -0.00048288   -0.00495104
     atom   14 type  2   force =    -0.00130959   -0.00045274   -0.00339643
     atom   15 type  2   force =    -0.00169783    0.00011746    0.00962094
     atom   16 type  2   force =    -0.00011698    0.00019677    0.00012877
     atom   17 type  2   force =     0.00099649   -0.00001317    0.00546566
     atom   18 type  2   force =     0.00133863    0.00017994   -0.00174635
     atom   19 type  2   force =     0.00204590    0.00065171   -0.01725107
     atom   20 type  2   force =    -0.00363748    0.00038841   -0.00837078
     atom   21 type  2   force =     0.00155062    0.00001978   -0.00035611
     atom   22 type  2   force =     0.00072320    0.00018455    0.00375298
     atom   23 type  2   force =    -0.00084541    0.00024828    0.00401527
     The Hubbard contrib.    to forces
     atom    1 type  4   force =     0.00000000    0.00000000    0.00000000
     atom    2 type  4   force =     0.00000000    0.00000000    0.00000000
     atom    3 type  1   force =     0.00000000    0.00000000    0.00000000
     atom    4 type  1   force =     0.00000000    0.00000000    0.00000000
     atom    5 type  3   force =     0.00000000    0.00000000    0.00000000
     atom    6 type  3   force =     0.00000000    0.00000000    0.00000000
     atom    7 type  3   force =     0.00000000    0.00000000    0.00000000
     atom    8 type  3   force =     0.00000000    0.00000000    0.00000000
     atom    9 type  3   force =     0.00000000    0.00000000    0.00000000
     atom   10 type  3   force =     0.00000000    0.00000000    0.00000000
     atom   11 type  3   force =     0.00000000    0.00000000    0.00000000
     atom   12 type  2   force =     0.00000000    0.00000000    0.00000000
     atom   13 type  2   force =     0.00000000    0.00000000    0.00000000
     atom   14 type  2   force =     0.00000000    0.00000000    0.00000000
     atom   15 type  2   force =     0.00000000    0.00000000    0.00000000
     atom   16 type  2   force =     0.00000000    0.00000000    0.00000000
     atom   17 type  2   force =     0.00000000    0.00000000    0.00000000
     atom   18 type  2   force =     0.00000000    0.00000000    0.00000000
     atom   19 type  2   force =     0.00000000    0.00000000    0.00000000
     atom   20 type  2   force =     0.00000000    0.00000000    0.00000000
     atom   21 type  2   force =     0.00000000    0.00000000    0.00000000
     atom   22 type  2   force =     0.00000000    0.00000000    0.00000000
     atom   23 type  2   force =     0.00000000    0.00000000    0.00000000
     The SCF correction term to forces
     atom    1 type  4   force =    -0.00070197   -0.00000110    0.00033262
     atom    2 type  4   force =     0.00046627   -0.00000753    0.00054229
     atom    3 type  1   force =    -0.00012339   -0.00000361   -0.00003098
     atom    4 type  1   force =     0.00046461   -0.00000524    0.00072925
     atom    5 type  3   force =    -0.00053113    0.00000195    0.00011672
     atom    6 type  3   force =     0.00057541    0.00000276    0.00021396
     atom    7 type  3   force =     0.00030630    0.00000252    0.00007993
     atom    8 type  3   force =    -0.00031568    0.00000075    0.00003055
     atom    9 type  3   force =     0.00035578    0.00000304    0.00040701
     atom   10 type  3   force =     0.00016682    0.00000128   -0.00006371
     atom   11 type  3   force =    -0.00022525    0.00000046    0.00033355
     atom   12 type  2   force =    -0.00190897    0.00001376   -0.00041026
     atom   13 type  2   force =     0.00034653   -0.00001330   -0.00011833
     atom   14 type  2   force =     0.00149459    0.00001720   -0.00113677
     atom   15 type  2   force =    -0.00071106   -0.00000912    0.00012819
     atom   16 type  2   force =     0.00112015    0.00000056   -0.00076824
     atom   17 type  2   force =    -0.00066852   -0.00002299   -0.00091930
     atom   18 type  2   force =    -0.00031899   -0.00000819   -0.00015749
     atom   19 type  2   force =     0.00049980   -0.00001043   -0.00029082
     atom   20 type  2   force =    -0.00027300    0.00000329   -0.00112897
     atom   21 type  2   force =    -0.00124941    0.00000288   -0.00075614
     atom   22 type  2   force =     0.00003991    0.00001486   -0.00009988
     atom   23 type  2   force =     0.00117617    0.00000769   -0.00081803

     Total force =     0.502920     Total SCF correction =     0.004514


     Computing stress (Cartesian axis) and pressure

          total   stress  (Ry/bohr**3)                   (kbar)     P=      -72.25
  -0.00039531   0.00000411  -0.00005700          -58.15        0.60       -8.38
   0.00000411  -0.00094330  -0.00002005            0.60     -138.76       -2.95
  -0.00005700  -0.00002005  -0.00013490           -8.38       -2.95      -19.84

     kinetic stress (kbar)  43352.58      0.97     12.33
                                0.97  43289.65     -8.64
                               12.33     -8.64  43127.99

     local   stress (kbar) -90366.26     13.33  -1339.60
                               13.33 -99650.23    129.38
                            -1339.60    129.38  81229.09

     nonloc. stress (kbar)  18684.06     -0.98      1.23
                               -0.98  18705.93      2.60
                                1.23      2.60  18612.50

     hartree stress (kbar)  83682.80     -6.04    550.37
                               -6.04  87397.12    -15.14
                              550.37    -15.14  -1560.27

     exc-cor stress (kbar) -10494.44      0.01      0.43
                                0.01 -10491.50     -0.15
                                0.43     -0.15 -10489.88

     corecor stress (kbar)  -3387.82      0.01      0.10
                                0.01  -3387.97     -0.01
                                0.10     -0.01  -3386.72

     ewald   stress (kbar) -41529.06     -6.69    766.74
                               -6.69 -36001.76   -110.99
                              766.74   -110.99-127552.56

     hubbard stress (kbar)      0.00      0.00      0.00
                                0.00      0.00      0.00
                                0.00      0.00      0.00

     london  stress (kbar)      0.00      0.00      0.00
                                0.00      0.00      0.00
                                0.00      0.00      0.00

     DFT-D3  stress (kbar)      0.00      0.00      0.00
                                0.00      0.00      0.00
                                0.00      0.00      0.00

     XDM     stress (kbar)      0.00      0.00      0.00
                                0.00      0.00      0.00
                                0.00      0.00      0.00

     dft-nl  stress (kbar)      0.00      0.00      0.00
                                0.00      0.00      0.00
                                0.00      0.00      0.00

     TS-vdW  stress (kbar)      0.00      0.00      0.00
                                0.00      0.00      0.00
                                0.00      0.00      0.00



     Writing output data file /tmp//Cr_Ni(100)_ZrO2(110)+vacuum.save/
 
     init_run     :     39.19s CPU    212.26s WALL (       1 calls)
     electrons    :   7757.07s CPU  57432.42s WALL (       1 calls)
     forces       :     15.24s CPU     92.31s WALL (       1 calls)
     stress       :     61.55s CPU    365.08s WALL (       1 calls)

     Called by init_run:
     wfcinit      :     27.90s CPU    160.19s WALL (       1 calls)
     wfcinit:atom :      0.10s CPU      0.40s WALL (      16 calls)
     wfcinit:wfcr :     26.96s CPU    155.45s WALL (      16 calls)
     potinit      :      3.18s CPU     14.49s WALL (       1 calls)
     hinit0       :      6.37s CPU     28.59s WALL (       1 calls)

     Called by electrons:
     c_bands      :   6388.31s CPU  46976.74s WALL (     124 calls)
     sum_band     :   1139.61s CPU   8437.14s WALL (     124 calls)
     v_of_rho     :     43.28s CPU    304.89s WALL (     125 calls)
     v_h          :      1.75s CPU      9.86s WALL (     125 calls)
     v_xc         :     42.21s CPU    299.24s WALL (     127 calls)
     newd         :    135.69s CPU   1260.25s WALL (     125 calls)
     PAW_pot      :     27.33s CPU    259.20s WALL (     125 calls)
     mix_rho      :     19.63s CPU    161.74s WALL (     124 calls)

     Called by c_bands:
     init_us_2    :     27.84s CPU    118.55s WALL (    4016 calls)
     cegterg      :   6145.61s CPU  45344.84s WALL (    1984 calls)

     Called by sum_band:
     sum_band:bec :      1.57s CPU      1.64s WALL (    1984 calls)
     addusdens    :    237.95s CPU   1935.58s WALL (     124 calls)

     Called by *egterg:
     h_psi        :   3485.84s CPU  25259.70s WALL (    4579 calls)
     s_psi        :    392.55s CPU   2594.11s WALL (    4579 calls)
     g_psi        :     19.25s CPU    140.18s WALL (    2579 calls)
     cdiaghg      :    972.63s CPU   8270.50s WALL (    4563 calls)
     cegterg:over :    529.99s CPU   3701.34s WALL (    2579 calls)
     cegterg:upda :    289.54s CPU   1890.65s WALL (    2579 calls)
     cegterg:last :    223.23s CPU   1423.52s WALL (    1984 calls)
     cdiaghg:chol :     34.50s CPU    326.65s WALL (    4563 calls)
     cdiaghg:inve :     11.31s CPU     62.20s WALL (    4563 calls)
     cdiaghg:para :    116.63s CPU    839.31s WALL (    9126 calls)

     Called by h_psi:
     h_psi:calbec :    443.59s CPU   3060.30s WALL (    4579 calls)
     vloc_psi     :   2643.33s CPU  19571.34s WALL (    4579 calls)
     add_vuspsi   :    392.17s CPU   2405.86s WALL (    4579 calls)

     General routines
     calbec       :    666.73s CPU   4613.67s WALL (    6643 calls)
     fft          :     37.45s CPU    315.66s WALL (    3163 calls)
     ffts         :      1.33s CPU     12.59s WALL (     498 calls)
     fftw         :   3035.82s CPU  24075.94s WALL ( 1900146 calls)
     interpolate  :      2.65s CPU     19.41s WALL (     250 calls)
 
     Parallel routines
     fft_scatt_xy :    332.38s CPU    348.87s WALL ( 1903807 calls)
     fft_scatt_yz :   1607.99s CPU  22873.67s WALL ( 1903807 calls)

     PAW routines
     PAW_pot      :     27.33s CPU    259.20s WALL (     125 calls)
 
     PWSCF        :      2h11m CPU     16h12m WALL

 
   This run was terminated on:   9:21:21  23Aug2022            

=------------------------------------------------------------------------------=
   JOB DONE.
=------------------------------------------------------------------------------=
