
     Program PWSCF v.6.5 starts on 16Aug2022 at 12:22: 7 

     This program is part of the open-source Quantum ESPRESSO suite
     for quantum simulation of materials; please cite
         "P. Giannozzi et al., J. Phys.:Condens. Matter 21 395502 (2009);
         "P. Giannozzi et al., J. Phys.:Condens. Matter 29 465901 (2017);
          URL http://www.quantum-espresso.org", 
     in publications or presentations arising from this work. More details at
     http://www.quantum-espresso.org/quote

     Parallel version (MPI), running on     8 processors

     MPI processes distributed on     1 nodes
     R & G space division:  proc/nbgrp/npool/nimage =       8
     Waiting for input...
     Reading input from standard input

     Current dimensions of program PWSCF are:
     Max number of different atomic species (ntypx) = 10
     Max number of k-points (npk) =  40000
     Max angular momentum in pseudopotentials (lmaxx) =  3

     Subspace diagonalization in iterative solution of the eigenvalue problem:
     one sub-group per band group will be used
     scalapack distributed-memory algorithm (size of sub-group:  2*  2 procs)

 
     Parallelization info
     --------------------
     sticks:   dense  smooth     PW     G-vecs:    dense   smooth      PW
     Min         455     227     66                46725    16499    2596
     Max         456     228     68                46732    16503    2597
     Sum        3645    1817    535               373833   132005   20773
 


     bravais-lattice index     =            0
     lattice parameter (alat)  =      19.5587  a.u.
     unit-cell volume          =    3240.9949 (a.u.)^3
     number of atoms/cell      =           12
     number of atomic types    =            1
     number of electrons       =       216.00
     number of Kohn-Sham states=          130
     kinetic-energy cutoff     =      45.0000  Ry
     charge density cutoff     =     360.0000  Ry
     convergence threshold     =      1.0E-06
     mixing beta               =       0.4000
     number of iterations used =            8  plain     mixing
     Exchange-correlation= SLA  PW   PSX  PSC
                           (   1   4  10   8   0   0   0)

     celldm(1)=  19.558666  celldm(2)=   0.000000  celldm(3)=   0.000000
     celldm(4)=   0.000000  celldm(5)=   0.000000  celldm(6)=   0.000000

     crystal axes: (cart. coord. in units of alat)
               a(1) = (   1.000000   0.000000   0.000000 )  
               a(2) = (   0.000000   0.333333   0.000000 )  
               a(3) = (   0.000000   0.000000   1.299517 )  

     reciprocal axes: (cart. coord. in units 2 pi/alat)
               b(1) = (  1.000000  0.000000  0.000000 )  
               b(2) = (  0.000000  3.000000  0.000000 )  
               b(3) = (  0.000000  0.000000  0.769517 )  


     PseudoPot. # 1 for Ni read from file:
     /home/zczlx99/q-e/pseudo/ni_pbesol_v1.4.uspp.F.UPF
     MD5 check sum: de937c0c8ae4b350e69c02b76d8a83cb
     Pseudo is Ultrasoft + core correction, Zval = 18.0
     Generated by new atomic code, or converted to UPF format
     Using radial grid of  865 points,  6 beta functions with: 
                l(1) =   0
                l(2) =   0
                l(3) =   1
                l(4) =   1
                l(5) =   2
                l(6) =   2
     Q(r) pseudized with 10 coefficients,  rinner =    0.980   0.980   0.980
                                                       0.980   0.980

     atomic species   valence    mass     pseudopotential
        Ni            18.00    58.69340     Ni( 1.00)

     Starting magnetic structure 
     atomic species   magnetization
        Ni           0.278

     No symmetry found


                                    s                        frac. trans.

      isym =  1     identity                                     

 cryst.   s( 1) = (     1          0          0      )
                  (     0          1          0      )
                  (     0          0          1      )

 cart.    s( 1) = (  1.0000000  0.0000000  0.0000000 )
                  (  0.0000000  1.0000000  0.0000000 )
                  (  0.0000000  0.0000000  1.0000000 )


   Cartesian axes

     site n.     atom                  positions (alat units)
         1           Ni  tau(   1) = (   0.2156250   0.0718750   0.2802083  )
         2           Ni  tau(   2) = (   3.6656250   0.0718750   0.2802083  )
         3           Ni  tau(   3) = (   7.1156250   0.0718750   0.2802083  )
         4           Ni  tau(   4) = (   1.9406250   0.6468750   0.2802083  )
         5           Ni  tau(   5) = (   5.3906250   0.6468750   0.2802083  )
         6           Ni  tau(   6) = (   8.8406250   0.6468750   0.2802083  )
         7           Ni  tau(   7) = (   1.9406250   0.0718750   2.5218750  )
         8           Ni  tau(   8) = (   5.3906250   0.0718750   2.5218750  )
         9           Ni  tau(   9) = (   8.8406250   0.0718750   2.5218750  )
        10           Ni  tau(  10) = (   0.2156250   0.6468750   2.5218750  )
        11           Ni  tau(  11) = (   3.6656250   0.6468750   2.5218750  )
        12           Ni  tau(  12) = (   7.1156250   0.6468750   2.5218750  )

   Crystallographic axes

     site n.     atom                  positions (cryst. coord.)
         1           Ni  tau(   1) = (  0.2156250  0.2156250  0.2156250  )
         2           Ni  tau(   2) = (  3.6656250  0.2156250  0.2156250  )
         3           Ni  tau(   3) = (  7.1156250  0.2156250  0.2156250  )
         4           Ni  tau(   4) = (  1.9406250  1.9406250  0.2156250  )
         5           Ni  tau(   5) = (  5.3906250  1.9406250  0.2156250  )
         6           Ni  tau(   6) = (  8.8406250  1.9406250  0.2156250  )
         7           Ni  tau(   7) = (  1.9406250  0.2156250  1.9406250  )
         8           Ni  tau(   8) = (  5.3906250  0.2156250  1.9406250  )
         9           Ni  tau(   9) = (  8.8406250  0.2156250  1.9406250  )
        10           Ni  tau(  10) = (  0.2156250  1.9406250  1.9406250  )
        11           Ni  tau(  11) = (  3.6656250  1.9406250  1.9406250  )
        12           Ni  tau(  12) = (  7.1156250  1.9406250  1.9406250  )

     number of k points=    36  Marzari-Vanderbilt smearing, width (Ry)=  0.0147
                       cart. coord. in units 2pi/alat
        k(    1) = (   0.0000000   0.0000000   0.0000000), wk =   0.0156250
        k(    2) = (   0.0000000   0.0000000   0.1923792), wk =   0.0312500
        k(    3) = (   0.0000000   0.0000000  -0.3847584), wk =   0.0156250
        k(    4) = (   0.0000000   0.7500000   0.0000000), wk =   0.0312500
        k(    5) = (   0.0000000   0.7500000   0.1923792), wk =   0.0312500
        k(    6) = (   0.0000000   0.7500000  -0.3847584), wk =   0.0312500
        k(    7) = (   0.0000000  -1.5000000   0.0000000), wk =   0.0156250
        k(    8) = (   0.0000000  -1.5000000   0.1923792), wk =   0.0312500
        k(    9) = (   0.0000000  -1.5000000  -0.3847584), wk =   0.0156250
        k(   10) = (   0.2500000   0.0000000   0.0000000), wk =   0.0312500
        k(   11) = (   0.2500000   0.0000000   0.1923792), wk =   0.0312500
        k(   12) = (   0.2500000   0.0000000  -0.3847584), wk =   0.0312500
        k(   13) = (   0.2500000   0.7500000   0.0000000), wk =   0.0312500
        k(   14) = (   0.2500000   0.7500000   0.1923792), wk =   0.0312500
        k(   15) = (   0.2500000   0.7500000  -0.3847584), wk =   0.0312500
        k(   16) = (   0.2500000  -1.5000000   0.0000000), wk =   0.0312500
        k(   17) = (   0.2500000  -1.5000000   0.1923792), wk =   0.0312500
        k(   18) = (   0.2500000  -1.5000000  -0.3847584), wk =   0.0312500
        k(   19) = (  -0.5000000   0.0000000   0.0000000), wk =   0.0156250
        k(   20) = (  -0.5000000   0.0000000   0.1923792), wk =   0.0312500
        k(   21) = (  -0.5000000   0.0000000  -0.3847584), wk =   0.0156250
        k(   22) = (  -0.5000000   0.7500000   0.0000000), wk =   0.0312500
        k(   23) = (  -0.5000000   0.7500000   0.1923792), wk =   0.0312500
        k(   24) = (  -0.5000000   0.7500000  -0.3847584), wk =   0.0312500
        k(   25) = (  -0.5000000  -1.5000000   0.0000000), wk =   0.0156250
        k(   26) = (  -0.5000000  -1.5000000   0.1923792), wk =   0.0312500
        k(   27) = (  -0.5000000  -1.5000000  -0.3847584), wk =   0.0156250
        k(   28) = (   0.0000000  -0.7500000   0.1923792), wk =   0.0312500
        k(   29) = (  -0.2500000   0.0000000   0.1923792), wk =   0.0312500
        k(   30) = (  -0.2500000   0.7500000   0.0000000), wk =   0.0312500
        k(   31) = (  -0.2500000  -0.7500000   0.1923792), wk =   0.0312500
        k(   32) = (  -0.2500000   0.7500000  -0.1923792), wk =   0.0312500
        k(   33) = (   0.2500000  -0.7500000  -0.1923792), wk =   0.0312500
        k(   34) = (  -0.2500000   0.7500000   0.3847584), wk =   0.0312500
        k(   35) = (  -0.2500000   1.5000000   0.1923792), wk =   0.0312500
        k(   36) = (   0.5000000  -0.7500000   0.1923792), wk =   0.0312500

                       cryst. coord.
        k(    1) = (   0.0000000   0.0000000   0.0000000), wk =   0.0156250
        k(    2) = (   0.0000000   0.0000000   0.2500000), wk =   0.0312500
        k(    3) = (   0.0000000   0.0000000  -0.5000000), wk =   0.0156250
        k(    4) = (   0.0000000   0.2500000   0.0000000), wk =   0.0312500
        k(    5) = (   0.0000000   0.2500000   0.2500000), wk =   0.0312500
        k(    6) = (   0.0000000   0.2500000  -0.5000000), wk =   0.0312500
        k(    7) = (   0.0000000  -0.5000000   0.0000000), wk =   0.0156250
        k(    8) = (   0.0000000  -0.5000000   0.2500000), wk =   0.0312500
        k(    9) = (   0.0000000  -0.5000000  -0.5000000), wk =   0.0156250
        k(   10) = (   0.2500000   0.0000000   0.0000000), wk =   0.0312500
        k(   11) = (   0.2500000   0.0000000   0.2500000), wk =   0.0312500
        k(   12) = (   0.2500000   0.0000000  -0.5000000), wk =   0.0312500
        k(   13) = (   0.2500000   0.2500000   0.0000000), wk =   0.0312500
        k(   14) = (   0.2500000   0.2500000   0.2500000), wk =   0.0312500
        k(   15) = (   0.2500000   0.2500000  -0.5000000), wk =   0.0312500
        k(   16) = (   0.2500000  -0.5000000   0.0000000), wk =   0.0312500
        k(   17) = (   0.2500000  -0.5000000   0.2500000), wk =   0.0312500
        k(   18) = (   0.2500000  -0.5000000  -0.5000000), wk =   0.0312500
        k(   19) = (  -0.5000000   0.0000000   0.0000000), wk =   0.0156250
        k(   20) = (  -0.5000000   0.0000000   0.2500000), wk =   0.0312500
        k(   21) = (  -0.5000000   0.0000000  -0.5000000), wk =   0.0156250
        k(   22) = (  -0.5000000   0.2500000   0.0000000), wk =   0.0312500
        k(   23) = (  -0.5000000   0.2500000   0.2500000), wk =   0.0312500
        k(   24) = (  -0.5000000   0.2500000  -0.5000000), wk =   0.0312500
        k(   25) = (  -0.5000000  -0.5000000   0.0000000), wk =   0.0156250
        k(   26) = (  -0.5000000  -0.5000000   0.2500000), wk =   0.0312500
        k(   27) = (  -0.5000000  -0.5000000  -0.5000000), wk =   0.0156250
        k(   28) = (   0.0000000  -0.2500000   0.2500000), wk =   0.0312500
        k(   29) = (  -0.2500000   0.0000000   0.2500000), wk =   0.0312500
        k(   30) = (  -0.2500000   0.2500000   0.0000000), wk =   0.0312500
        k(   31) = (  -0.2500000  -0.2500000   0.2500000), wk =   0.0312500
        k(   32) = (  -0.2500000   0.2500000  -0.2500000), wk =   0.0312500
        k(   33) = (   0.2500000  -0.2500000  -0.2500000), wk =   0.0312500
        k(   34) = (  -0.2500000   0.2500000   0.5000000), wk =   0.0312500
        k(   35) = (  -0.2500000   0.5000000   0.2500000), wk =   0.0312500
        k(   36) = (   0.5000000  -0.2500000   0.2500000), wk =   0.0312500

     Dense  grid:   373833 G-vectors     FFT dimensions: ( 120,  40, 160)

     Smooth grid:   132005 G-vectors     FFT dimensions: (  90,  27, 120)

     Dynamical RAM for                 wfc:       4.10 MB

     Dynamical RAM for     wfc (w. buffer):     299.02 MB

     Dynamical RAM for           str. fact:       0.71 MB

     Dynamical RAM for           local pot:       0.00 MB

     Dynamical RAM for          nlocal pot:       6.81 MB

     Dynamical RAM for                qrad:       4.73 MB

     Dynamical RAM for          rho,v,vnew:       8.67 MB

     Dynamical RAM for               rhoin:       2.89 MB

     Dynamical RAM for            rho*nmix:      22.82 MB

     Dynamical RAM for           G-vectors:       2.80 MB

     Dynamical RAM for          h,s,v(r/c):       3.09 MB

     Dynamical RAM for          <psi|beta>:       0.43 MB

     Dynamical RAM for                 psi:      16.38 MB

     Dynamical RAM for                hpsi:      16.38 MB

     Dynamical RAM for                spsi:      16.38 MB

     Dynamical RAM for      wfcinit/wfcrot:      10.39 MB

     Dynamical RAM for           addusdens:     141.90 MB

     Dynamical RAM for          addusforce:     157.68 MB

     Dynamical RAM for         addusstress:     144.40 MB

     Estimated static dynamical RAM per process >     354.28 MB

     Estimated max dynamical RAM per process >     511.96 MB

     Estimated total dynamical RAM >       4.00 GB
     Generating pointlists ...
     new r_m :   0.0413 (alat units)  0.8068 (a.u.) for type    1

     Check: negative core charge=   -0.000003

     Initial potential from superposition of free atoms

     starting charge  192.00000, renormalised to  216.00000
     Starting wfcs are  156 randomized atomic wfcs

     total cpu time spent up to now is      144.7 secs

     Self-consistent Calculation

     iteration #  1     ecut=    45.00 Ry     beta= 0.40
     Davidson diagonalization with overlap
     ethr =  1.00E-02,  avg # of iterations =  6.8

     total cpu time spent up to now is     1026.5 secs

     total energy              =   -3457.82932080 Ry
     Harris-Foulkes estimate   =   -4244.00459791 Ry
     estimated scf accuracy    <    1326.43825027 Ry

     total magnetization       =     7.92 Bohr mag/cell
     absolute magnetization    =     8.54 Bohr mag/cell

     iteration #  2     ecut=    45.00 Ry     beta= 0.40
     Davidson diagonalization with overlap
     ethr =  1.00E-02,  avg # of iterations =  6.0

     total cpu time spent up to now is     2074.2 secs

     total energy              =   -4102.18996734 Ry
     Harris-Foulkes estimate   =   -4313.62182585 Ry
     estimated scf accuracy    <     503.46768420 Ry

     total magnetization       =    20.69 Bohr mag/cell
     absolute magnetization    =    20.98 Bohr mag/cell

     iteration #  3     ecut=    45.00 Ry     beta= 0.40
     Davidson diagonalization with overlap
     ethr =  1.00E-02,  avg # of iterations =  6.2

     total cpu time spent up to now is     3168.9 secs

     total energy              =   -4126.82323003 Ry
     Harris-Foulkes estimate   =   -4185.81363374 Ry
     estimated scf accuracy    <     227.61801347 Ry

     total magnetization       =     7.01 Bohr mag/cell
     absolute magnetization    =     7.54 Bohr mag/cell

     iteration #  4     ecut=    45.00 Ry     beta= 0.40
     Davidson diagonalization with overlap
     ethr =  1.00E-02,  avg # of iterations =  4.5

     total cpu time spent up to now is     3815.6 secs

     total energy              =   -4122.45971682 Ry
     Harris-Foulkes estimate   =   -4145.96364390 Ry
     estimated scf accuracy    <     107.46159197 Ry

     total magnetization       =     3.18 Bohr mag/cell
     absolute magnetization    =     4.28 Bohr mag/cell

     iteration #  5     ecut=    45.00 Ry     beta= 0.40
     Davidson diagonalization with overlap
     ethr =  1.00E-02,  avg # of iterations =  2.0

     total cpu time spent up to now is     4324.3 secs

     total energy              =   -4114.27719458 Ry
     Harris-Foulkes estimate   =   -4125.16933854 Ry
     estimated scf accuracy    <      52.92241773 Ry

     total magnetization       =     8.61 Bohr mag/cell
     absolute magnetization    =     9.24 Bohr mag/cell

     iteration #  6     ecut=    45.00 Ry     beta= 0.40
     Davidson diagonalization with overlap
     ethr =  1.00E-02,  avg # of iterations =  1.0

     total cpu time spent up to now is     4718.6 secs

     total energy              =   -4112.94275715 Ry
     Harris-Foulkes estimate   =   -4115.15204668 Ry
     estimated scf accuracy    <      45.30484451 Ry

     total magnetization       =    11.12 Bohr mag/cell
     absolute magnetization    =    11.75 Bohr mag/cell

     iteration #  7     ecut=    45.00 Ry     beta= 0.40
     Davidson diagonalization with overlap
     ethr =  1.00E-02,  avg # of iterations =  1.0

     total cpu time spent up to now is     5142.4 secs

     total energy              =   -4108.66633676 Ry
     Harris-Foulkes estimate   =   -4113.78817355 Ry
     estimated scf accuracy    <      37.16128619 Ry

     total magnetization       =    11.11 Bohr mag/cell
     absolute magnetization    =    11.72 Bohr mag/cell

     iteration #  8     ecut=    45.00 Ry     beta= 0.40
     Davidson diagonalization with overlap
     ethr =  1.00E-02,  avg # of iterations =  1.0

     total cpu time spent up to now is     5534.2 secs

     total energy              =   -4105.62672472 Ry
     Harris-Foulkes estimate   =   -4109.90807165 Ry
     estimated scf accuracy    <      36.33399525 Ry

     total magnetization       =     6.49 Bohr mag/cell
     absolute magnetization    =     7.34 Bohr mag/cell

     iteration #  9     ecut=    45.00 Ry     beta= 0.40
     Davidson diagonalization with overlap
     ethr =  1.00E-02,  avg # of iterations =  1.0

     total cpu time spent up to now is     5954.3 secs

     total energy              =   -4102.29785049 Ry
     Harris-Foulkes estimate   =   -4106.33899152 Ry
     estimated scf accuracy    <      24.27205383 Ry

     total magnetization       =     7.53 Bohr mag/cell
     absolute magnetization    =     8.20 Bohr mag/cell

     iteration # 10     ecut=    45.00 Ry     beta= 0.40
     Davidson diagonalization with overlap
     ethr =  1.00E-02,  avg # of iterations =  1.0

     total cpu time spent up to now is     6347.7 secs

     total energy              =   -4091.96935915 Ry
     Harris-Foulkes estimate   =   -4102.85052293 Ry
     estimated scf accuracy    <      20.46680720 Ry

     total magnetization       =     6.53 Bohr mag/cell
     absolute magnetization    =     7.14 Bohr mag/cell

     iteration # 11     ecut=    45.00 Ry     beta= 0.40
     Davidson diagonalization with overlap
     ethr =  9.48E-03,  avg # of iterations =  3.3

     total cpu time spent up to now is     6926.7 secs

     total energy              =   -4094.17575268 Ry
     Harris-Foulkes estimate   =   -4098.97549342 Ry
     estimated scf accuracy    <      61.02616035 Ry

     total magnetization       =     5.44 Bohr mag/cell
     absolute magnetization    =     6.11 Bohr mag/cell

     iteration # 12     ecut=    45.00 Ry     beta= 0.40
     Davidson diagonalization with overlap
     ethr =  9.48E-03,  avg # of iterations =  1.7

     total cpu time spent up to now is     7341.2 secs

     total energy              =   -4093.73998793 Ry
     Harris-Foulkes estimate   =   -4098.05060526 Ry
     estimated scf accuracy    <      63.25966126 Ry

     total magnetization       =     4.12 Bohr mag/cell
     absolute magnetization    =     5.20 Bohr mag/cell

     iteration # 13     ecut=    45.00 Ry     beta= 0.40
     Davidson diagonalization with overlap
     ethr =  9.48E-03,  avg # of iterations =  2.0

     total cpu time spent up to now is     7810.7 secs

     total energy              =   -4094.92532937 Ry
     Harris-Foulkes estimate   =   -4095.98963367 Ry
     estimated scf accuracy    <      17.09615363 Ry

     total magnetization       =     6.07 Bohr mag/cell
     absolute magnetization    =     6.77 Bohr mag/cell

     iteration # 14     ecut=    45.00 Ry     beta= 0.40
     Davidson diagonalization with overlap
     ethr =  7.91E-03,  avg # of iterations =  1.3

     total cpu time spent up to now is     8169.0 secs

     total energy              =   -4095.01804183 Ry
     Harris-Foulkes estimate   =   -4095.86701950 Ry
     estimated scf accuracy    <       8.48860577 Ry

     total magnetization       =     4.75 Bohr mag/cell
     absolute magnetization    =     5.34 Bohr mag/cell

     iteration # 15     ecut=    45.00 Ry     beta= 0.40
     Davidson diagonalization with overlap
     ethr =  3.93E-03,  avg # of iterations =  1.3

     total cpu time spent up to now is     8503.6 secs

     total energy              =   -4094.66221776 Ry
     Harris-Foulkes estimate   =   -4095.64457986 Ry
     estimated scf accuracy    <      12.92175449 Ry

     total magnetization       =     7.84 Bohr mag/cell
     absolute magnetization    =     8.28 Bohr mag/cell

     iteration # 16     ecut=    45.00 Ry     beta= 0.40
     Davidson diagonalization with overlap
     ethr =  3.93E-03,  avg # of iterations =  1.8

     total cpu time spent up to now is     8880.0 secs

     total energy              =   -4094.74679871 Ry
     Harris-Foulkes estimate   =   -4096.13151137 Ry
     estimated scf accuracy    <      16.72383847 Ry

     total magnetization       =     4.48 Bohr mag/cell
     absolute magnetization    =     5.02 Bohr mag/cell

     iteration # 17     ecut=    45.00 Ry     beta= 0.40
     Davidson diagonalization with overlap
     ethr =  3.93E-03,  avg # of iterations =  1.1

     total cpu time spent up to now is     9244.1 secs

     total energy              =   -4095.12950483 Ry
     Harris-Foulkes estimate   =   -4095.58285216 Ry
     estimated scf accuracy    <       6.91455301 Ry

     total magnetization       =     3.12 Bohr mag/cell
     absolute magnetization    =     3.44 Bohr mag/cell

     iteration # 18     ecut=    45.00 Ry     beta= 0.40
     Davidson diagonalization with overlap
     ethr =  3.20E-03,  avg # of iterations =  1.0

     total cpu time spent up to now is     9586.1 secs

     total energy              =   -4095.12084438 Ry
     Harris-Foulkes estimate   =   -4095.34529250 Ry
     estimated scf accuracy    <       3.06948490 Ry

     total magnetization       =     4.50 Bohr mag/cell
     absolute magnetization    =     4.89 Bohr mag/cell

     iteration # 19     ecut=    45.00 Ry     beta= 0.40
     Davidson diagonalization with overlap
     ethr =  1.42E-03,  avg # of iterations =  1.7

     total cpu time spent up to now is     9947.6 secs

     total energy              =   -4094.99159704 Ry
     Harris-Foulkes estimate   =   -4095.41499106 Ry
     estimated scf accuracy    <       6.04505807 Ry

     total magnetization       =     5.83 Bohr mag/cell
     absolute magnetization    =     6.17 Bohr mag/cell

     iteration # 20     ecut=    45.00 Ry     beta= 0.40
     Davidson diagonalization with overlap
     ethr =  1.42E-03,  avg # of iterations =  1.1

     total cpu time spent up to now is    10315.4 secs

     total energy              =   -4095.12084550 Ry
     Harris-Foulkes estimate   =   -4095.33773235 Ry
     estimated scf accuracy    <       4.04093248 Ry

     total magnetization       =     3.53 Bohr mag/cell
     absolute magnetization    =     3.92 Bohr mag/cell

     iteration # 21     ecut=    45.00 Ry     beta= 0.40
     Davidson diagonalization with overlap
     ethr =  1.42E-03,  avg # of iterations =  1.0

     total cpu time spent up to now is    10677.3 secs

     total energy              =   -4095.17434635 Ry
     Harris-Foulkes estimate   =   -4095.29613917 Ry
     estimated scf accuracy    <       2.75273412 Ry

     total magnetization       =     4.30 Bohr mag/cell
     absolute magnetization    =     4.62 Bohr mag/cell

     iteration # 22     ecut=    45.00 Ry     beta= 0.40
     Davidson diagonalization with overlap
     ethr =  1.27E-03,  avg # of iterations =  1.0

     total cpu time spent up to now is    11049.5 secs

     total energy              =   -4095.19123421 Ry
     Harris-Foulkes estimate   =   -4095.26948218 Ry
     estimated scf accuracy    <       1.10626554 Ry

     total magnetization       =     3.39 Bohr mag/cell
     absolute magnetization    =     3.77 Bohr mag/cell

     iteration # 23     ecut=    45.00 Ry     beta= 0.40
     Davidson diagonalization with overlap
     ethr =  5.12E-04,  avg # of iterations =  1.9

     total cpu time spent up to now is    11437.9 secs

     total energy              =   -4095.01514980 Ry
     Harris-Foulkes estimate   =   -4095.35452338 Ry
     estimated scf accuracy    <       9.18275776 Ry

     total magnetization       =     6.28 Bohr mag/cell
     absolute magnetization    =     6.55 Bohr mag/cell

     iteration # 24     ecut=    45.00 Ry     beta= 0.40
     Davidson diagonalization with overlap
     ethr =  5.12E-04,  avg # of iterations =  1.9

     total cpu time spent up to now is    11816.4 secs

     total energy              =   -4095.22414221 Ry
     Harris-Foulkes estimate   =   -4095.24917732 Ry
     estimated scf accuracy    <       0.51501529 Ry

     total magnetization       =     3.36 Bohr mag/cell
     absolute magnetization    =     3.77 Bohr mag/cell

     iteration # 25     ecut=    45.00 Ry     beta= 0.40
     Davidson diagonalization with overlap
     ethr =  2.38E-04,  avg # of iterations =  1.0

     total cpu time spent up to now is    12170.4 secs

     total energy              =   -4095.19157304 Ry
     Harris-Foulkes estimate   =   -4095.25879093 Ry
     estimated scf accuracy    <       1.61908115 Ry

     total magnetization       =     4.79 Bohr mag/cell
     absolute magnetization    =     5.10 Bohr mag/cell

     iteration # 26     ecut=    45.00 Ry     beta= 0.40
     Davidson diagonalization with overlap
     ethr =  2.38E-04,  avg # of iterations =  1.1

     total cpu time spent up to now is    12527.7 secs

     total energy              =   -4095.23574752 Ry
     Harris-Foulkes estimate   =   -4095.25274101 Ry
     estimated scf accuracy    <       0.55644519 Ry

     total magnetization       =     3.03 Bohr mag/cell
     absolute magnetization    =     3.43 Bohr mag/cell

     iteration # 27     ecut=    45.00 Ry     beta= 0.40
     Davidson diagonalization with overlap
     ethr =  2.38E-04,  avg # of iterations =  1.0

     total cpu time spent up to now is    12880.4 secs

     total energy              =   -4095.23348454 Ry
     Harris-Foulkes estimate   =   -4095.25542345 Ry
     estimated scf accuracy    <       0.64248706 Ry

     total magnetization       =     3.63 Bohr mag/cell
     absolute magnetization    =     4.00 Bohr mag/cell

     iteration # 28     ecut=    45.00 Ry     beta= 0.40
     Davidson diagonalization with overlap
     ethr =  2.38E-04,  avg # of iterations =  1.0

     total cpu time spent up to now is    13235.1 secs

     total energy              =   -4095.24353080 Ry
     Harris-Foulkes estimate   =   -4095.24765414 Ry
     estimated scf accuracy    <       0.31754956 Ry

     total magnetization       =     2.85 Bohr mag/cell
     absolute magnetization    =     3.25 Bohr mag/cell

     iteration # 29     ecut=    45.00 Ry     beta= 0.40
     Davidson diagonalization with overlap
     ethr =  1.47E-04,  avg # of iterations =  1.1

     total cpu time spent up to now is    13583.9 secs

     total energy              =   -4095.24097859 Ry
     Harris-Foulkes estimate   =   -4095.24814460 Ry
     estimated scf accuracy    <       0.25587040 Ry

     total magnetization       =     2.84 Bohr mag/cell
     absolute magnetization    =     3.23 Bohr mag/cell

     iteration # 30     ecut=    45.00 Ry     beta= 0.40
     Davidson diagonalization with overlap
     ethr =  1.18E-04,  avg # of iterations =  1.1

     total cpu time spent up to now is    13922.9 secs

     total energy              =   -4095.24329169 Ry
     Harris-Foulkes estimate   =   -4095.24629331 Ry
     estimated scf accuracy    <       0.14573172 Ry

     total magnetization       =     2.66 Bohr mag/cell
     absolute magnetization    =     3.04 Bohr mag/cell

     iteration # 31     ecut=    45.00 Ry     beta= 0.40
     Davidson diagonalization with overlap
     ethr =  6.75E-05,  avg # of iterations =  2.0

     total cpu time spent up to now is    14288.1 secs

     total energy              =   -4095.24469041 Ry
     Harris-Foulkes estimate   =   -4095.24535321 Ry
     estimated scf accuracy    <       0.10635862 Ry

     total magnetization       =     2.50 Bohr mag/cell
     absolute magnetization    =     2.90 Bohr mag/cell

     iteration # 32     ecut=    45.00 Ry     beta= 0.40
     Davidson diagonalization with overlap
     ethr =  4.92E-05,  avg # of iterations =  1.2

     total cpu time spent up to now is    14614.3 secs

     total energy              =   -4095.24482552 Ry
     Harris-Foulkes estimate   =   -4095.24559612 Ry
     estimated scf accuracy    <       0.05501420 Ry

     total magnetization       =     2.27 Bohr mag/cell
     absolute magnetization    =     2.66 Bohr mag/cell

     iteration # 33     ecut=    45.00 Ry     beta= 0.40
     Davidson diagonalization with overlap
     ethr =  2.55E-05,  avg # of iterations =  2.2

     total cpu time spent up to now is    14981.6 secs

     total energy              =   -4095.24591816 Ry
     Harris-Foulkes estimate   =   -4095.24693807 Ry
     estimated scf accuracy    <       0.01719816 Ry

     total magnetization       =     1.94 Bohr mag/cell
     absolute magnetization    =     2.30 Bohr mag/cell

     iteration # 34     ecut=    45.00 Ry     beta= 0.40
     Davidson diagonalization with overlap
     ethr =  7.96E-06,  avg # of iterations =  5.2

     total cpu time spent up to now is    15442.9 secs

     total energy              =   -4095.24307712 Ry
     Harris-Foulkes estimate   =   -4095.24701848 Ry
     estimated scf accuracy    <       0.03711497 Ry

     total magnetization       =     1.83 Bohr mag/cell
     absolute magnetization    =     2.20 Bohr mag/cell

     iteration # 35     ecut=    45.00 Ry     beta= 0.40
     Davidson diagonalization with overlap
     ethr =  7.96E-06,  avg # of iterations =  4.8

     total cpu time spent up to now is    15959.1 secs

     total energy              =   -4095.22202339 Ry
     Harris-Foulkes estimate   =   -4095.26527110 Ry
     estimated scf accuracy    <       1.49693103 Ry

     total magnetization       =     2.72 Bohr mag/cell
     absolute magnetization    =     2.97 Bohr mag/cell

     iteration # 36     ecut=    45.00 Ry     beta= 0.40
     Davidson diagonalization with overlap
     ethr =  7.96E-06,  avg # of iterations =  4.6

     total cpu time spent up to now is    16473.9 secs

     total energy              =   -4095.24706422 Ry
     Harris-Foulkes estimate   =   -4095.24754179 Ry
     estimated scf accuracy    <       0.02028179 Ry

     total magnetization       =     1.62 Bohr mag/cell
     absolute magnetization    =     1.97 Bohr mag/cell

     iteration # 37     ecut=    45.00 Ry     beta= 0.40
     Davidson diagonalization with overlap
     ethr =  7.96E-06,  avg # of iterations =  1.2

     total cpu time spent up to now is    16835.5 secs

     total energy              =   -4095.24668290 Ry
     Harris-Foulkes estimate   =   -4095.24915201 Ry
     estimated scf accuracy    <       0.04054244 Ry

     total magnetization       =     1.37 Bohr mag/cell
     absolute magnetization    =     1.69 Bohr mag/cell

     iteration # 38     ecut=    45.00 Ry     beta= 0.40
     Davidson diagonalization with overlap
     ethr =  7.96E-06,  avg # of iterations =  1.0

     total cpu time spent up to now is    17190.6 secs

     total energy              =   -4095.24783873 Ry
     Harris-Foulkes estimate   =   -4095.24820676 Ry
     estimated scf accuracy    <       0.01184719 Ry

     total magnetization       =     1.33 Bohr mag/cell
     absolute magnetization    =     1.64 Bohr mag/cell

     iteration # 39     ecut=    45.00 Ry     beta= 0.40
     Davidson diagonalization with overlap
     ethr =  5.48E-06,  avg # of iterations =  1.0

     total cpu time spent up to now is    17550.2 secs

     total energy              =   -4095.24814801 Ry
     Harris-Foulkes estimate   =   -4095.24839022 Ry
     estimated scf accuracy    <       0.00769059 Ry

     total magnetization       =     1.23 Bohr mag/cell
     absolute magnetization    =     1.54 Bohr mag/cell

     iteration # 40     ecut=    45.00 Ry     beta= 0.40
     Davidson diagonalization with overlap
     ethr =  3.56E-06,  avg # of iterations =  1.8

     total cpu time spent up to now is    17930.7 secs

     total energy              =   -4095.24851562 Ry
     Harris-Foulkes estimate   =   -4095.24860695 Ry
     estimated scf accuracy    <       0.00488339 Ry

     total magnetization       =     1.12 Bohr mag/cell
     absolute magnetization    =     1.41 Bohr mag/cell

     iteration # 41     ecut=    45.00 Ry     beta= 0.40
     Davidson diagonalization with overlap
     ethr =  2.26E-06,  avg # of iterations =  1.1

     total cpu time spent up to now is    18290.1 secs

     total energy              =   -4095.24882793 Ry
     Harris-Foulkes estimate   =   -4095.24878023 Ry
     estimated scf accuracy    <       0.00252195 Ry

     total magnetization       =     1.00 Bohr mag/cell
     absolute magnetization    =     1.28 Bohr mag/cell

     iteration # 42     ecut=    45.00 Ry     beta= 0.40
     Davidson diagonalization with overlap
     ethr =  1.17E-06,  avg # of iterations =  1.4

     total cpu time spent up to now is    18657.3 secs

     total energy              =   -4095.24914977 Ry
     Harris-Foulkes estimate   =   -4095.24914949 Ry
     estimated scf accuracy    <       0.00234387 Ry

     total magnetization       =     0.81 Bohr mag/cell
     absolute magnetization    =     1.06 Bohr mag/cell

     iteration # 43     ecut=    45.00 Ry     beta= 0.40
     Davidson diagonalization with overlap
     ethr =  1.09E-06,  avg # of iterations =  1.0

     total cpu time spent up to now is    19009.0 secs

     total energy              =   -4095.24930784 Ry
     Harris-Foulkes estimate   =   -4095.24926053 Ry
     estimated scf accuracy    <       0.00073158 Ry

     total magnetization       =     0.75 Bohr mag/cell
     absolute magnetization    =     1.00 Bohr mag/cell

     iteration # 44     ecut=    45.00 Ry     beta= 0.40
     Davidson diagonalization with overlap
     ethr =  3.39E-07,  avg # of iterations =  2.6

     total cpu time spent up to now is    19433.9 secs

     total energy              =   -4095.24952946 Ry
     Harris-Foulkes estimate   =   -4095.24952659 Ry
     estimated scf accuracy    <       0.00066276 Ry

     total magnetization       =     0.57 Bohr mag/cell
     absolute magnetization    =     0.81 Bohr mag/cell

     iteration # 45     ecut=    45.00 Ry     beta= 0.40
     Davidson diagonalization with overlap
     ethr =  3.07E-07,  avg # of iterations =  1.6

     total cpu time spent up to now is    19805.2 secs

     total energy              =   -4095.24965435 Ry
     Harris-Foulkes estimate   =   -4095.24970681 Ry
     estimated scf accuracy    <       0.00161656 Ry

     total magnetization       =     0.42 Bohr mag/cell
     absolute magnetization    =     0.67 Bohr mag/cell

     iteration # 46     ecut=    45.00 Ry     beta= 0.40
     Davidson diagonalization with overlap
     ethr =  3.07E-07,  avg # of iterations =  1.1

     total cpu time spent up to now is    20151.8 secs

     total energy              =   -4095.24975532 Ry
     Harris-Foulkes estimate   =   -4095.24978125 Ry
     estimated scf accuracy    <       0.00071421 Ry

     total magnetization       =     0.33 Bohr mag/cell
     absolute magnetization    =     0.58 Bohr mag/cell

     iteration # 47     ecut=    45.00 Ry     beta= 0.40
     Davidson diagonalization with overlap
     ethr =  3.07E-07,  avg # of iterations =  1.0

     total cpu time spent up to now is    20496.7 secs

     total energy              =   -4095.24968949 Ry
     Harris-Foulkes estimate   =   -4095.24991488 Ry
     estimated scf accuracy    <       0.00352591 Ry

     total magnetization       =     0.30 Bohr mag/cell
     absolute magnetization    =     0.55 Bohr mag/cell

     iteration # 48     ecut=    45.00 Ry     beta= 0.40
     Davidson diagonalization with overlap
     ethr =  3.07E-07,  avg # of iterations =  1.2

     total cpu time spent up to now is    20849.7 secs

     total energy              =   -4095.24982358 Ry
     Harris-Foulkes estimate   =   -4095.24983576 Ry
     estimated scf accuracy    <       0.00061769 Ry

     total magnetization       =     0.26 Bohr mag/cell
     absolute magnetization    =     0.52 Bohr mag/cell

     iteration # 49     ecut=    45.00 Ry     beta= 0.40
     Davidson diagonalization with overlap
     ethr =  2.86E-07,  avg # of iterations =  1.0

     total cpu time spent up to now is    21185.0 secs

     total energy              =   -4095.24983670 Ry
     Harris-Foulkes estimate   =   -4095.24988406 Ry
     estimated scf accuracy    <       0.00072178 Ry

     total magnetization       =     0.22 Bohr mag/cell
     absolute magnetization    =     0.49 Bohr mag/cell

     iteration # 50     ecut=    45.00 Ry     beta= 0.40
     Davidson diagonalization with overlap
     ethr =  2.86E-07,  avg # of iterations =  1.0

     total cpu time spent up to now is    21535.0 secs

     total energy              =   -4095.24981821 Ry
     Harris-Foulkes estimate   =   -4095.24993749 Ry
     estimated scf accuracy    <       0.00238744 Ry

     total magnetization       =     0.20 Bohr mag/cell
     absolute magnetization    =     0.47 Bohr mag/cell

     iteration # 51     ecut=    45.00 Ry     beta= 0.40
     Davidson diagonalization with overlap
     ethr =  2.86E-07,  avg # of iterations =  1.0

     total cpu time spent up to now is    21883.3 secs

     total energy              =   -4095.24981875 Ry
     Harris-Foulkes estimate   =   -4095.24990006 Ry
     estimated scf accuracy    <       0.00041048 Ry

     total magnetization       =     0.17 Bohr mag/cell
     absolute magnetization    =     0.45 Bohr mag/cell

     iteration # 52     ecut=    45.00 Ry     beta= 0.40
     Davidson diagonalization with overlap
     ethr =  1.90E-07,  avg # of iterations =  1.6

     total cpu time spent up to now is    22245.3 secs

     total energy              =   -4095.24965266 Ry
     Harris-Foulkes estimate   =   -4095.25004355 Ry
     estimated scf accuracy    <       0.00814588 Ry

     total magnetization       =     0.23 Bohr mag/cell
     absolute magnetization    =     0.49 Bohr mag/cell

     iteration # 53     ecut=    45.00 Ry     beta= 0.40
     Davidson diagonalization with overlap
     ethr =  1.90E-07,  avg # of iterations =  2.0

     total cpu time spent up to now is    22630.9 secs

     total energy              =   -4095.24992102 Ry
     Harris-Foulkes estimate   =   -4095.24994284 Ry
     estimated scf accuracy    <       0.00016462 Ry

     total magnetization       =     0.09 Bohr mag/cell
     absolute magnetization    =     0.41 Bohr mag/cell

     iteration # 54     ecut=    45.00 Ry     beta= 0.40
     Davidson diagonalization with overlap
     ethr =  7.62E-08,  avg # of iterations =  1.9

     total cpu time spent up to now is    23009.0 secs

     total energy              =   -4095.24993561 Ry
     Harris-Foulkes estimate   =   -4095.24994253 Ry
     estimated scf accuracy    <       0.00015447 Ry

     total magnetization       =     0.10 Bohr mag/cell
     absolute magnetization    =     0.41 Bohr mag/cell

     iteration # 55     ecut=    45.00 Ry     beta= 0.40
     Davidson diagonalization with overlap
     ethr =  7.15E-08,  avg # of iterations =  1.5

     total cpu time spent up to now is    23371.1 secs

     total energy              =   -4095.24993277 Ry
     Harris-Foulkes estimate   =   -4095.24996293 Ry
     estimated scf accuracy    <       0.00048620 Ry

     total magnetization       =     0.08 Bohr mag/cell
     absolute magnetization    =     0.40 Bohr mag/cell

     iteration # 56     ecut=    45.00 Ry     beta= 0.40
     Davidson diagonalization with overlap
     ethr =  7.15E-08,  avg # of iterations =  1.0

     total cpu time spent up to now is    23715.6 secs

     total energy              =   -4095.24994764 Ry
     Harris-Foulkes estimate   =   -4095.24995837 Ry
     estimated scf accuracy    <       0.00018638 Ry

     total magnetization       =     0.08 Bohr mag/cell
     absolute magnetization    =     0.40 Bohr mag/cell

     iteration # 57     ecut=    45.00 Ry     beta= 0.40
     Davidson diagonalization with overlap
     ethr =  7.15E-08,  avg # of iterations =  1.0

     total cpu time spent up to now is    24069.9 secs

     total energy              =   -4095.24993719 Ry
     Harris-Foulkes estimate   =   -4095.24996569 Ry
     estimated scf accuracy    <       0.00028007 Ry

     total magnetization       =     0.06 Bohr mag/cell
     absolute magnetization    =     0.40 Bohr mag/cell

     iteration # 58     ecut=    45.00 Ry     beta= 0.40
     Davidson diagonalization with overlap
     ethr =  7.15E-08,  avg # of iterations =  1.0

     total cpu time spent up to now is    24425.5 secs

     total energy              =   -4095.24994878 Ry
     Harris-Foulkes estimate   =   -4095.24995743 Ry
     estimated scf accuracy    <       0.00023265 Ry

     total magnetization       =     0.08 Bohr mag/cell
     absolute magnetization    =     0.40 Bohr mag/cell

     iteration # 59     ecut=    45.00 Ry     beta= 0.40
     Davidson diagonalization with overlap
     ethr =  7.15E-08,  avg # of iterations =  1.0

     total cpu time spent up to now is    24772.2 secs

     total energy              =   -4095.24995509 Ry
     Harris-Foulkes estimate   =   -4095.24996282 Ry
     estimated scf accuracy    <       0.00019022 Ry

     total magnetization       =     0.07 Bohr mag/cell
     absolute magnetization    =     0.40 Bohr mag/cell

     iteration # 60     ecut=    45.00 Ry     beta= 0.40
     Davidson diagonalization with overlap
     ethr =  7.15E-08,  avg # of iterations =  1.0

     total cpu time spent up to now is    25118.6 secs

     total energy              =   -4095.24994628 Ry
     Harris-Foulkes estimate   =   -4095.24996893 Ry
     estimated scf accuracy    <       0.00019061 Ry

     total magnetization       =     0.06 Bohr mag/cell
     absolute magnetization    =     0.40 Bohr mag/cell

     iteration # 61     ecut=    45.00 Ry     beta= 0.40
     Davidson diagonalization with overlap
     ethr =  7.15E-08,  avg # of iterations =  1.0

     total cpu time spent up to now is    25465.7 secs

     total energy              =   -4095.24996118 Ry
     Harris-Foulkes estimate   =   -4095.24995770 Ry
     estimated scf accuracy    <       0.00005386 Ry

     total magnetization       =     0.07 Bohr mag/cell
     absolute magnetization    =     0.40 Bohr mag/cell

     iteration # 62     ecut=    45.00 Ry     beta= 0.40
     Davidson diagonalization with overlap
     ethr =  2.49E-08,  avg # of iterations =  1.0

     total cpu time spent up to now is    25796.5 secs

     total energy              =   -4095.24995355 Ry
     Harris-Foulkes estimate   =   -4095.24997472 Ry
     estimated scf accuracy    <       0.00036883 Ry

     total magnetization       =     0.06 Bohr mag/cell
     absolute magnetization    =     0.40 Bohr mag/cell

     iteration # 63     ecut=    45.00 Ry     beta= 0.40
     Davidson diagonalization with overlap
     ethr =  2.49E-08,  avg # of iterations =  1.0

     total cpu time spent up to now is    26128.6 secs

     total energy              =   -4095.24996152 Ry
     Harris-Foulkes estimate   =   -4095.24996412 Ry
     estimated scf accuracy    <       0.00004805 Ry

     total magnetization       =     0.06 Bohr mag/cell
     absolute magnetization    =     0.40 Bohr mag/cell

     iteration # 64     ecut=    45.00 Ry     beta= 0.40
     Davidson diagonalization with overlap
     ethr =  2.22E-08,  avg # of iterations =  1.0

     total cpu time spent up to now is    26465.4 secs

     total energy              =   -4095.24996647 Ry
     Harris-Foulkes estimate   =   -4095.24996380 Ry
     estimated scf accuracy    <       0.00002410 Ry

     total magnetization       =     0.07 Bohr mag/cell
     absolute magnetization    =     0.41 Bohr mag/cell

     iteration # 65     ecut=    45.00 Ry     beta= 0.40
     Davidson diagonalization with overlap
     ethr =  1.12E-08,  avg # of iterations =  1.0

     total cpu time spent up to now is    26799.4 secs

     total energy              =   -4095.24996879 Ry
     Harris-Foulkes estimate   =   -4095.24996911 Ry
     estimated scf accuracy    <       0.00003690 Ry

     total magnetization       =     0.06 Bohr mag/cell
     absolute magnetization    =     0.41 Bohr mag/cell

     iteration # 66     ecut=    45.00 Ry     beta= 0.40
     Davidson diagonalization with overlap
     ethr =  1.12E-08,  avg # of iterations =  1.0

     total cpu time spent up to now is    27129.8 secs

     total energy              =   -4095.24996915 Ry
     Harris-Foulkes estimate   =   -4095.24997233 Ry
     estimated scf accuracy    <       0.00004981 Ry

     total magnetization       =     0.05 Bohr mag/cell
     absolute magnetization    =     0.41 Bohr mag/cell

     iteration # 67     ecut=    45.00 Ry     beta= 0.40
     Davidson diagonalization with overlap
     ethr =  1.12E-08,  avg # of iterations =  1.0

     total cpu time spent up to now is    27463.9 secs

     total energy              =   -4095.24997087 Ry
     Harris-Foulkes estimate   =   -4095.24997260 Ry
     estimated scf accuracy    <       0.00006911 Ry

     total magnetization       =     0.06 Bohr mag/cell
     absolute magnetization    =     0.41 Bohr mag/cell

     iteration # 68     ecut=    45.00 Ry     beta= 0.40
     Davidson diagonalization with overlap
     ethr =  1.12E-08,  avg # of iterations =  1.4

     total cpu time spent up to now is    27817.4 secs

     total energy              =   -4095.24997121 Ry
     Harris-Foulkes estimate   =   -4095.24997594 Ry
     estimated scf accuracy    <       0.00006973 Ry

     total magnetization       =     0.05 Bohr mag/cell
     absolute magnetization    =     0.42 Bohr mag/cell

     iteration # 69     ecut=    45.00 Ry     beta= 0.40
     Davidson diagonalization with overlap
     ethr =  1.12E-08,  avg # of iterations =  1.2

     total cpu time spent up to now is    28173.6 secs

     total energy              =   -4095.24997322 Ry
     Harris-Foulkes estimate   =   -4095.24997653 Ry
     estimated scf accuracy    <       0.00009045 Ry

     total magnetization       =     0.05 Bohr mag/cell
     absolute magnetization    =     0.42 Bohr mag/cell

     iteration # 70     ecut=    45.00 Ry     beta= 0.40
     Davidson diagonalization with overlap
     ethr =  1.12E-08,  avg # of iterations =  1.1

     total cpu time spent up to now is    28523.6 secs

     total energy              =   -4095.24996954 Ry
     Harris-Foulkes estimate   =   -4095.24997832 Ry
     estimated scf accuracy    <       0.00007476 Ry

     total magnetization       =     0.05 Bohr mag/cell
     absolute magnetization    =     0.42 Bohr mag/cell

     iteration # 71     ecut=    45.00 Ry     beta= 0.40
     Davidson diagonalization with overlap
     ethr =  1.12E-08,  avg # of iterations =  1.0

     total cpu time spent up to now is    28867.5 secs

     total energy              =   -4095.24997430 Ry
     Harris-Foulkes estimate   =   -4095.24997551 Ry
     estimated scf accuracy    <       0.00008477 Ry

     total magnetization       =     0.05 Bohr mag/cell
     absolute magnetization    =     0.42 Bohr mag/cell

     iteration # 72     ecut=    45.00 Ry     beta= 0.40
     Davidson diagonalization with overlap
     ethr =  1.12E-08,  avg # of iterations =  1.0

     total cpu time spent up to now is    29213.8 secs

     total energy              =   -4095.24997014 Ry
     Harris-Foulkes estimate   =   -4095.24998159 Ry
     estimated scf accuracy    <       0.00012285 Ry

     total magnetization       =     0.04 Bohr mag/cell
     absolute magnetization    =     0.43 Bohr mag/cell

     iteration # 73     ecut=    45.00 Ry     beta= 0.40
     Davidson diagonalization with overlap
     ethr =  1.12E-08,  avg # of iterations =  1.0

     total cpu time spent up to now is    29561.4 secs

     total energy              =   -4095.24997501 Ry
     Harris-Foulkes estimate   =   -4095.24997599 Ry
     estimated scf accuracy    <       0.00004205 Ry

     total magnetization       =     0.05 Bohr mag/cell
     absolute magnetization    =     0.42 Bohr mag/cell

     iteration # 74     ecut=    45.00 Ry     beta= 0.40
     Davidson diagonalization with overlap
     ethr =  1.12E-08,  avg # of iterations =  1.0

     total cpu time spent up to now is    29907.7 secs

     total energy              =   -4095.24997782 Ry
     Harris-Foulkes estimate   =   -4095.24997667 Ry
     estimated scf accuracy    <       0.00001589 Ry

     total magnetization       =     0.05 Bohr mag/cell
     absolute magnetization    =     0.42 Bohr mag/cell

     iteration # 75     ecut=    45.00 Ry     beta= 0.40
     Davidson diagonalization with overlap
     ethr =  7.36E-09,  avg # of iterations =  1.0

     total cpu time spent up to now is    30252.6 secs

     total energy              =   -4095.24997820 Ry
     Harris-Foulkes estimate   =   -4095.24997874 Ry
     estimated scf accuracy    <       0.00001451 Ry

     total magnetization       =     0.05 Bohr mag/cell
     absolute magnetization    =     0.43 Bohr mag/cell

     iteration # 76     ecut=    45.00 Ry     beta= 0.40
     Davidson diagonalization with overlap
     ethr =  6.72E-09,  avg # of iterations =  1.0

     total cpu time spent up to now is    30597.0 secs

     total energy              =   -4095.24997900 Ry
     Harris-Foulkes estimate   =   -4095.24997898 Ry
     estimated scf accuracy    <       0.00001514 Ry

     total magnetization       =     0.05 Bohr mag/cell
     absolute magnetization    =     0.43 Bohr mag/cell

     iteration # 77     ecut=    45.00 Ry     beta= 0.40
     Davidson diagonalization with overlap
     ethr =  6.72E-09,  avg # of iterations =  1.0

     total cpu time spent up to now is    30940.2 secs

     total energy              =   -4095.24998074 Ry
     Harris-Foulkes estimate   =   -4095.24997996 Ry
     estimated scf accuracy    <       0.00001965 Ry

     total magnetization       =     0.04 Bohr mag/cell
     absolute magnetization    =     0.44 Bohr mag/cell

     iteration # 78     ecut=    45.00 Ry     beta= 0.40
     Davidson diagonalization with overlap
     ethr =  6.72E-09,  avg # of iterations =  1.0

     total cpu time spent up to now is    31283.3 secs

     total energy              =   -4095.24998158 Ry
     Harris-Foulkes estimate   =   -4095.24998192 Ry
     estimated scf accuracy    <       0.00001423 Ry

     total magnetization       =     0.04 Bohr mag/cell
     absolute magnetization    =     0.44 Bohr mag/cell

     iteration # 79     ecut=    45.00 Ry     beta= 0.40
     Davidson diagonalization with overlap
     ethr =  6.59E-09,  avg # of iterations =  1.0

     total cpu time spent up to now is    31632.7 secs

     total energy              =   -4095.24998143 Ry
     Harris-Foulkes estimate   =   -4095.24998293 Ry
     estimated scf accuracy    <       0.00003169 Ry

     total magnetization       =     0.04 Bohr mag/cell
     absolute magnetization    =     0.45 Bohr mag/cell

     iteration # 80     ecut=    45.00 Ry     beta= 0.40
     Davidson diagonalization with overlap
     ethr =  6.59E-09,  avg # of iterations =  1.0

     total cpu time spent up to now is    31983.6 secs

     total energy              =   -4095.24998218 Ry
     Harris-Foulkes estimate   =   -4095.24998285 Ry
     estimated scf accuracy    <       0.00002627 Ry

     total magnetization       =     0.04 Bohr mag/cell
     absolute magnetization    =     0.45 Bohr mag/cell

     iteration # 81     ecut=    45.00 Ry     beta= 0.40
     Davidson diagonalization with overlap
     ethr =  6.59E-09,  avg # of iterations =  1.0

     total cpu time spent up to now is    32311.6 secs

     total energy              =   -4095.24998350 Ry
     Harris-Foulkes estimate   =   -4095.24998480 Ry
     estimated scf accuracy    <       0.00006197 Ry

     total magnetization       =     0.04 Bohr mag/cell
     absolute magnetization    =     0.45 Bohr mag/cell

     iteration # 82     ecut=    45.00 Ry     beta= 0.40
     Davidson diagonalization with overlap
     ethr =  6.59E-09,  avg # of iterations =  1.0

     total cpu time spent up to now is    32621.4 secs

     total energy              =   -4095.24997958 Ry
     Harris-Foulkes estimate   =   -4095.24998667 Ry
     estimated scf accuracy    <       0.00002812 Ry

     total magnetization       =     0.03 Bohr mag/cell
     absolute magnetization    =     0.46 Bohr mag/cell

     iteration # 83     ecut=    45.00 Ry     beta= 0.40
     Davidson diagonalization with overlap
     ethr =  6.59E-09,  avg # of iterations =  1.0

     total cpu time spent up to now is    32952.4 secs

     total energy              =   -4095.24998269 Ry
     Harris-Foulkes estimate   =   -4095.24998332 Ry
     estimated scf accuracy    <       0.00004045 Ry

     total magnetization       =     0.04 Bohr mag/cell
     absolute magnetization    =     0.45 Bohr mag/cell

     iteration # 84     ecut=    45.00 Ry     beta= 0.40
     Davidson diagonalization with overlap
     ethr =  6.59E-09,  avg # of iterations =  1.0

     total cpu time spent up to now is    33311.8 secs

     total energy              =   -4095.24998407 Ry
     Harris-Foulkes estimate   =   -4095.24998478 Ry
     estimated scf accuracy    <       0.00002060 Ry

     total magnetization       =     0.04 Bohr mag/cell
     absolute magnetization    =     0.46 Bohr mag/cell

     iteration # 85     ecut=    45.00 Ry     beta= 0.40
     Davidson diagonalization with overlap
     ethr =  6.59E-09,  avg # of iterations =  1.0

     total cpu time spent up to now is    33655.2 secs

     total energy              =   -4095.24998588 Ry
     Harris-Foulkes estimate   =   -4095.24998490 Ry
     estimated scf accuracy    <       0.00001073 Ry

     total magnetization       =     0.04 Bohr mag/cell
     absolute magnetization    =     0.46 Bohr mag/cell

     iteration # 86     ecut=    45.00 Ry     beta= 0.40
     Davidson diagonalization with overlap
     ethr =  4.97E-09,  avg # of iterations =  1.0

     total cpu time spent up to now is    34008.9 secs

     total energy              =   -4095.24998436 Ry
     Harris-Foulkes estimate   =   -4095.24998685 Ry
     estimated scf accuracy    <       0.00001029 Ry

     total magnetization       =     0.03 Bohr mag/cell
     absolute magnetization    =     0.47 Bohr mag/cell

     iteration # 87     ecut=    45.00 Ry     beta= 0.40
     Davidson diagonalization with overlap
     ethr =  4.76E-09,  avg # of iterations =  1.0

     total cpu time spent up to now is    34370.7 secs

     total energy              =   -4095.24998633 Ry
     Harris-Foulkes estimate   =   -4095.24998521 Ry
     estimated scf accuracy    <       0.00001107 Ry

     total magnetization       =     0.04 Bohr mag/cell
     absolute magnetization    =     0.46 Bohr mag/cell

     iteration # 88     ecut=    45.00 Ry     beta= 0.40
     Davidson diagonalization with overlap
     ethr =  4.76E-09,  avg # of iterations =  1.0

     total cpu time spent up to now is    34725.4 secs

     total energy              =   -4095.24998713 Ry
     Harris-Foulkes estimate   =   -4095.24998713 Ry
     estimated scf accuracy    <       0.00000591 Ry

     total magnetization       =     0.03 Bohr mag/cell
     absolute magnetization    =     0.47 Bohr mag/cell

     iteration # 89     ecut=    45.00 Ry     beta= 0.40
     Davidson diagonalization with overlap
     ethr =  2.74E-09,  avg # of iterations =  1.0

     total cpu time spent up to now is    35092.6 secs

     total energy              =   -4095.24998721 Ry
     Harris-Foulkes estimate   =   -4095.24998749 Ry
     estimated scf accuracy    <       0.00001004 Ry

     total magnetization       =     0.03 Bohr mag/cell
     absolute magnetization    =     0.47 Bohr mag/cell

     iteration # 90     ecut=    45.00 Ry     beta= 0.40
     Davidson diagonalization with overlap
     ethr =  2.74E-09,  avg # of iterations =  1.0

     total cpu time spent up to now is    35464.9 secs

     total energy              =   -4095.24998795 Ry
     Harris-Foulkes estimate   =   -4095.24998762 Ry
     estimated scf accuracy    <       0.00000894 Ry

     total magnetization       =     0.03 Bohr mag/cell
     absolute magnetization    =     0.47 Bohr mag/cell

     iteration # 91     ecut=    45.00 Ry     beta= 0.40
     Davidson diagonalization with overlap
     ethr =  2.74E-09,  avg # of iterations =  1.0

     total cpu time spent up to now is    35834.7 secs

     total energy              =   -4095.24998854 Ry
     Harris-Foulkes estimate   =   -4095.24998852 Ry
     estimated scf accuracy    <       0.00001530 Ry

     total magnetization       =     0.03 Bohr mag/cell
     absolute magnetization    =     0.48 Bohr mag/cell

     iteration # 92     ecut=    45.00 Ry     beta= 0.40
     Davidson diagonalization with overlap
     ethr =  2.74E-09,  avg # of iterations =  1.0

     total cpu time spent up to now is    36201.8 secs

     total energy              =   -4095.24998867 Ry
     Harris-Foulkes estimate   =   -4095.24998906 Ry
     estimated scf accuracy    <       0.00000702 Ry

     total magnetization       =     0.03 Bohr mag/cell
     absolute magnetization    =     0.48 Bohr mag/cell

     iteration # 93     ecut=    45.00 Ry     beta= 0.40
     Davidson diagonalization with overlap
     ethr =  2.74E-09,  avg # of iterations =  1.0

     total cpu time spent up to now is    36569.3 secs

     total energy              =   -4095.24998930 Ry
     Harris-Foulkes estimate   =   -4095.24998937 Ry
     estimated scf accuracy    <       0.00002175 Ry

     total magnetization       =     0.03 Bohr mag/cell
     absolute magnetization    =     0.48 Bohr mag/cell

     iteration # 94     ecut=    45.00 Ry     beta= 0.40
     Davidson diagonalization with overlap
     ethr =  2.74E-09,  avg # of iterations =  1.0

     total cpu time spent up to now is    36932.7 secs

     total energy              =   -4095.24999055 Ry
     Harris-Foulkes estimate   =   -4095.24999008 Ry
     estimated scf accuracy    <       0.00000742 Ry

     total magnetization       =     0.03 Bohr mag/cell
     absolute magnetization    =     0.49 Bohr mag/cell

     iteration # 95     ecut=    45.00 Ry     beta= 0.40
     Davidson diagonalization with overlap
     ethr =  2.74E-09,  avg # of iterations =  1.0

     total cpu time spent up to now is    37296.5 secs

     total energy              =   -4095.24998991 Ry
     Harris-Foulkes estimate   =   -4095.24999091 Ry
     estimated scf accuracy    <       0.00000692 Ry

     total magnetization       =     0.03 Bohr mag/cell
     absolute magnetization    =     0.49 Bohr mag/cell

     iteration # 96     ecut=    45.00 Ry     beta= 0.40
     Davidson diagonalization with overlap
     ethr =  2.74E-09,  avg # of iterations =  1.0

     total cpu time spent up to now is    37662.2 secs

     total energy              =   -4095.24999045 Ry
     Harris-Foulkes estimate   =   -4095.24999018 Ry
     estimated scf accuracy    <       0.00000515 Ry

     total magnetization       =     0.03 Bohr mag/cell
     absolute magnetization    =     0.49 Bohr mag/cell

     iteration # 97     ecut=    45.00 Ry     beta= 0.40
     Davidson diagonalization with overlap
     ethr =  2.38E-09,  avg # of iterations =  1.0

     total cpu time spent up to now is    38035.3 secs

     total energy              =   -4095.24999122 Ry
     Harris-Foulkes estimate   =   -4095.24999077 Ry
     estimated scf accuracy    <       0.00000963 Ry

     total magnetization       =     0.03 Bohr mag/cell
     absolute magnetization    =     0.49 Bohr mag/cell

     iteration # 98     ecut=    45.00 Ry     beta= 0.40
     Davidson diagonalization with overlap
     ethr =  2.38E-09,  avg # of iterations =  1.0

     total cpu time spent up to now is    38391.5 secs

     total energy              =   -4095.24999207 Ry
     Harris-Foulkes estimate   =   -4095.24999148 Ry
     estimated scf accuracy    <       0.00000452 Ry

     total magnetization       =     0.03 Bohr mag/cell
     absolute magnetization    =     0.50 Bohr mag/cell

     iteration # 99     ecut=    45.00 Ry     beta= 0.40
     Davidson diagonalization with overlap
     ethr =  2.09E-09,  avg # of iterations =  1.0

     total cpu time spent up to now is    38757.4 secs

     total energy              =   -4095.24999058 Ry
     Harris-Foulkes estimate   =   -4095.24999224 Ry
     estimated scf accuracy    <       0.00000538 Ry

     total magnetization       =     0.02 Bohr mag/cell
     absolute magnetization    =     0.50 Bohr mag/cell

     iteration #100     ecut=    45.00 Ry     beta= 0.40
     Davidson diagonalization with overlap
     ethr =  2.09E-09,  avg # of iterations =  1.0
 
     Magnetic moment per site:
     atom:    1    charge:   10.1132    magn:    0.0117    constr:    0.0000
     atom:    2    charge:    9.8010    magn:   -0.0130    constr:    0.0000
     atom:    3    charge:   10.1125    magn:    0.0098    constr:    0.0000
     atom:    4    charge:   10.1111    magn:   -0.0102    constr:    0.0000
     atom:    5    charge:    9.8010    magn:    0.0122    constr:    0.0000
     atom:    6    charge:   10.1146    magn:   -0.0120    constr:    0.0000
     atom:    7    charge:   10.1110    magn:   -0.0280    constr:    0.0000
     atom:    8    charge:    9.8010    magn:    0.0491    constr:    0.0000
     atom:    9    charge:   10.1147    magn:   -0.0327    constr:    0.0000
     atom:   10    charge:   10.1133    magn:    0.0365    constr:    0.0000
     atom:   11    charge:    9.8011    magn:   -0.0322    constr:    0.0000
     atom:   12    charge:   10.1125    magn:    0.0298    constr:    0.0000

     total cpu time spent up to now is    39116.4 secs

     total energy              =   -4095.24999236 Ry
     Harris-Foulkes estimate   =   -4095.24999095 Ry
     estimated scf accuracy    <       0.00000546 Ry

     total magnetization       =     0.03 Bohr mag/cell
     absolute magnetization    =     0.49 Bohr mag/cell

     iteration #101     ecut=    45.00 Ry     beta= 0.40
     Davidson diagonalization with overlap
     ethr =  2.09E-09,  avg # of iterations =  1.0

     total cpu time spent up to now is    39480.1 secs

     total energy              =   -4095.24999260 Ry
     Harris-Foulkes estimate   =   -4095.24999322 Ry
     estimated scf accuracy    <       0.00000535 Ry

     total magnetization       =     0.02 Bohr mag/cell
     absolute magnetization    =     0.51 Bohr mag/cell

     iteration #102     ecut=    45.00 Ry     beta= 0.40
     Davidson diagonalization with overlap
     ethr =  2.09E-09,  avg # of iterations =  1.0

     total cpu time spent up to now is    39856.9 secs

     total energy              =   -4095.24999264 Ry
     Harris-Foulkes estimate   =   -4095.24999272 Ry
     estimated scf accuracy    <       0.00000440 Ry

     total magnetization       =     0.02 Bohr mag/cell
     absolute magnetization    =     0.51 Bohr mag/cell

     iteration #103     ecut=    45.00 Ry     beta= 0.40
     Davidson diagonalization with overlap
     ethr =  2.04E-09,  avg # of iterations =  1.0

     total cpu time spent up to now is    40230.3 secs

     total energy              =   -4095.24999398 Ry
     Harris-Foulkes estimate   =   -4095.24999283 Ry
     estimated scf accuracy    <       0.00000860 Ry

     total magnetization       =     0.02 Bohr mag/cell
     absolute magnetization    =     0.51 Bohr mag/cell

     iteration #104     ecut=    45.00 Ry     beta= 0.40
     Davidson diagonalization with overlap
     ethr =  2.04E-09,  avg # of iterations =  1.0

     total cpu time spent up to now is    40604.8 secs

     total energy              =   -4095.24999314 Ry
     Harris-Foulkes estimate   =   -4095.24999491 Ry
     estimated scf accuracy    <       0.00000464 Ry

     total magnetization       =     0.02 Bohr mag/cell
     absolute magnetization    =     0.52 Bohr mag/cell

     iteration #105     ecut=    45.00 Ry     beta= 0.40
     Davidson diagonalization with overlap
     ethr =  2.04E-09,  avg # of iterations =  1.0

     total cpu time spent up to now is    40962.8 secs

     total energy              =   -4095.24999503 Ry
     Harris-Foulkes estimate   =   -4095.24999352 Ry
     estimated scf accuracy    <       0.00000426 Ry

     total magnetization       =     0.02 Bohr mag/cell
     absolute magnetization    =     0.51 Bohr mag/cell

     iteration #106     ecut=    45.00 Ry     beta= 0.40
     Davidson diagonalization with overlap
     ethr =  1.97E-09,  avg # of iterations =  1.5

     total cpu time spent up to now is    41337.1 secs

     total energy              =   -4095.24999271 Ry
     Harris-Foulkes estimate   =   -4095.24999633 Ry
     estimated scf accuracy    <       0.00000390 Ry

     total magnetization       =     0.02 Bohr mag/cell
     absolute magnetization    =     0.53 Bohr mag/cell

     iteration #107     ecut=    45.00 Ry     beta= 0.40
     Davidson diagonalization with overlap
     ethr =  1.80E-09,  avg # of iterations =  1.6

     total cpu time spent up to now is    41723.0 secs

     total energy              =   -4095.24999457 Ry
     Harris-Foulkes estimate   =   -4095.24999423 Ry
     estimated scf accuracy    <       0.00001738 Ry

     total magnetization       =     0.02 Bohr mag/cell
     absolute magnetization    =     0.51 Bohr mag/cell

     iteration #108     ecut=    45.00 Ry     beta= 0.40
     Davidson diagonalization with overlap
     ethr =  1.80E-09,  avg # of iterations =  1.0

     total cpu time spent up to now is    42091.2 secs

     total energy              =   -4095.24999556 Ry
     Harris-Foulkes estimate   =   -4095.24999552 Ry
     estimated scf accuracy    <       0.00000374 Ry

     total magnetization       =     0.02 Bohr mag/cell
     absolute magnetization    =     0.53 Bohr mag/cell

     iteration #109     ecut=    45.00 Ry     beta= 0.40
     Davidson diagonalization with overlap
     ethr =  1.73E-09,  avg # of iterations =  1.0

     total cpu time spent up to now is    42463.7 secs

     total energy              =   -4095.24999575 Ry
     Harris-Foulkes estimate   =   -4095.24999558 Ry
     estimated scf accuracy    <       0.00000385 Ry

     total magnetization       =     0.02 Bohr mag/cell
     absolute magnetization    =     0.53 Bohr mag/cell

     iteration #110     ecut=    45.00 Ry     beta= 0.40
     Davidson diagonalization with overlap
     ethr =  1.73E-09,  avg # of iterations =  1.0

     total cpu time spent up to now is    42847.8 secs

     total energy              =   -4095.24999611 Ry
     Harris-Foulkes estimate   =   -4095.24999579 Ry
     estimated scf accuracy    <       0.00000494 Ry

     total magnetization       =     0.02 Bohr mag/cell
     absolute magnetization    =     0.53 Bohr mag/cell

     iteration #111     ecut=    45.00 Ry     beta= 0.40
     Davidson diagonalization with overlap
     ethr =  1.73E-09,  avg # of iterations =  1.0

     total cpu time spent up to now is    43211.3 secs

     total energy              =   -4095.24999523 Ry
     Harris-Foulkes estimate   =   -4095.24999615 Ry
     estimated scf accuracy    <       0.00000378 Ry

     total magnetization       =     0.02 Bohr mag/cell
     absolute magnetization    =     0.53 Bohr mag/cell

     iteration #112     ecut=    45.00 Ry     beta= 0.40
     Davidson diagonalization with overlap
     ethr =  1.73E-09,  avg # of iterations =  1.0

     total cpu time spent up to now is    43589.7 secs

     total energy              =   -4095.24998931 Ry
     Harris-Foulkes estimate   =   -4095.24999542 Ry
     estimated scf accuracy    <       0.00000769 Ry

     total magnetization       =     0.02 Bohr mag/cell
     absolute magnetization    =     0.53 Bohr mag/cell

     iteration #113     ecut=    45.00 Ry     beta= 0.40
     Davidson diagonalization with overlap
     ethr =  1.73E-09,  avg # of iterations =  2.0

     total cpu time spent up to now is    43987.2 secs

     total energy              =   -4095.24999246 Ry
     Harris-Foulkes estimate   =   -4095.24999234 Ry
     estimated scf accuracy    <       0.00002899 Ry

     total magnetization       =     0.02 Bohr mag/cell
     absolute magnetization    =     0.50 Bohr mag/cell

     iteration #114     ecut=    45.00 Ry     beta= 0.40
     Davidson diagonalization with overlap
     ethr =  1.73E-09,  avg # of iterations =  2.0

     total cpu time spent up to now is    44406.4 secs

     total energy              =   -4095.24992518 Ry
     Harris-Foulkes estimate   =   -4095.24999465 Ry
     estimated scf accuracy    <       0.00000938 Ry

     total magnetization       =     0.02 Bohr mag/cell
     absolute magnetization    =     0.52 Bohr mag/cell

     iteration #115     ecut=    45.00 Ry     beta= 0.40
     Davidson diagonalization with overlap
     ethr =  1.73E-09,  avg # of iterations =  3.0

     total cpu time spent up to now is    45046.8 secs

     total energy              =   -4095.24995392 Ry
     Harris-Foulkes estimate   =   -4095.24997852 Ry
     estimated scf accuracy    <       0.00000791 Ry

     total magnetization       =     0.04 Bohr mag/cell
     absolute magnetization    =     0.37 Bohr mag/cell

     iteration #116     ecut=    45.00 Ry     beta= 0.40
     Davidson diagonalization with overlap
     ethr =  1.73E-09,  avg # of iterations =  3.0

     total cpu time spent up to now is    45655.7 secs

     total energy              =   -4095.24996150 Ry
     Harris-Foulkes estimate   =   -4095.24999195 Ry
     estimated scf accuracy    <       0.00000971 Ry

     total magnetization       =     0.02 Bohr mag/cell
     absolute magnetization    =     0.49 Bohr mag/cell

     iteration #117     ecut=    45.00 Ry     beta= 0.40
     Davidson diagonalization with overlap
     ethr =  1.73E-09,  avg # of iterations =  3.0

     total cpu time spent up to now is    46205.1 secs

     total energy              =   -4095.24996428 Ry
     Harris-Foulkes estimate   =   -4095.24998319 Ry
     estimated scf accuracy    <       0.00004302 Ry

     total magnetization       =     0.03 Bohr mag/cell
     absolute magnetization    =     0.40 Bohr mag/cell

     iteration #118     ecut=    45.00 Ry     beta= 0.40
     Davidson diagonalization with overlap
     ethr =  1.73E-09,  avg # of iterations =  2.9

     total cpu time spent up to now is    46709.7 secs

     total energy              =   -4095.24997213 Ry
     Harris-Foulkes estimate   =   -4095.24997588 Ry
     estimated scf accuracy    <       0.00000325 Ry

     total magnetization       =     0.04 Bohr mag/cell
     absolute magnetization    =     0.34 Bohr mag/cell

     iteration #119     ecut=    45.00 Ry     beta= 0.40
     Davidson diagonalization with overlap
     ethr =  1.50E-09,  avg # of iterations =  2.0

     total cpu time spent up to now is    47105.7 secs

     total energy              =   -4095.24996807 Ry
     Harris-Foulkes estimate   =   -4095.24997399 Ry
     estimated scf accuracy    <       0.00000492 Ry

     total magnetization       =     0.04 Bohr mag/cell
     absolute magnetization    =     0.31 Bohr mag/cell

     iteration #120     ecut=    45.00 Ry     beta= 0.40
     Davidson diagonalization with overlap
     ethr =  1.50E-09,  avg # of iterations =  2.0

     total cpu time spent up to now is    47528.1 secs

     total energy              =   -4095.24997161 Ry
     Harris-Foulkes estimate   =   -4095.24997154 Ry
     estimated scf accuracy    <       0.00001679 Ry

     total magnetization       =     0.04 Bohr mag/cell
     absolute magnetization    =     0.28 Bohr mag/cell

     iteration #121     ecut=    45.00 Ry     beta= 0.40
     Davidson diagonalization with overlap
     ethr =  1.50E-09,  avg # of iterations =  1.0

     total cpu time spent up to now is    47889.9 secs

     total energy              =   -4095.24996124 Ry
     Harris-Foulkes estimate   =   -4095.24997266 Ry
     estimated scf accuracy    <       0.00000796 Ry

     total magnetization       =     0.04 Bohr mag/cell
     absolute magnetization    =     0.29 Bohr mag/cell

     iteration #122     ecut=    45.00 Ry     beta= 0.40
     Davidson diagonalization with overlap
     ethr =  1.50E-09,  avg # of iterations =  2.6

     total cpu time spent up to now is    48363.8 secs

     total energy              =   -4095.24996411 Ry
     Harris-Foulkes estimate   =   -4095.24996920 Ry
     estimated scf accuracy    <       0.00002002 Ry

     total magnetization       =     0.04 Bohr mag/cell
     absolute magnetization    =     0.24 Bohr mag/cell

     iteration #123     ecut=    45.00 Ry     beta= 0.40
     Davidson diagonalization with overlap
     ethr =  1.50E-09,  avg # of iterations =  2.0

     total cpu time spent up to now is    48770.1 secs

     total energy              =   -4095.24996410 Ry
     Harris-Foulkes estimate   =   -4095.24996714 Ry
     estimated scf accuracy    <       0.00001007 Ry

     total magnetization       =     0.04 Bohr mag/cell
     absolute magnetization    =     0.22 Bohr mag/cell

     iteration #124     ecut=    45.00 Ry     beta= 0.40
     Davidson diagonalization with overlap
     ethr =  1.50E-09,  avg # of iterations =  1.9

     total cpu time spent up to now is    49157.6 secs

     total energy              =   -4095.24995953 Ry
     Harris-Foulkes estimate   =   -4095.24996590 Ry
     estimated scf accuracy    <       0.00000747 Ry

     total magnetization       =     0.04 Bohr mag/cell
     absolute magnetization    =     0.21 Bohr mag/cell

     iteration #125     ecut=    45.00 Ry     beta= 0.40
     Davidson diagonalization with overlap
     ethr =  1.50E-09,  avg # of iterations =  3.0

     total cpu time spent up to now is    49655.9 secs

     total energy              =   -4095.24992011 Ry
     Harris-Foulkes estimate   =   -4095.24996971 Ry
     estimated scf accuracy    <       0.00000793 Ry

     total magnetization       =     0.04 Bohr mag/cell
     absolute magnetization    =     0.25 Bohr mag/cell

     iteration #126     ecut=    45.00 Ry     beta= 0.40
     Davidson diagonalization with overlap
     ethr =  1.50E-09,  avg # of iterations =  3.0

     total cpu time spent up to now is    50265.0 secs

     total energy              =   -4095.24995047 Ry
     Harris-Foulkes estimate   =   -4095.24996376 Ry
     estimated scf accuracy    <       0.00000243 Ry

     total magnetization       =     0.04 Bohr mag/cell
     absolute magnetization    =     0.20 Bohr mag/cell

     iteration #127     ecut=    45.00 Ry     beta= 0.40
     Davidson diagonalization with overlap
     ethr =  1.13E-09,  avg # of iterations =  3.0

     total cpu time spent up to now is    50807.7 secs

     total energy              =   -4095.24995496 Ry
     Harris-Foulkes estimate   =   -4095.24996276 Ry
     estimated scf accuracy    <       0.00001355 Ry

     total magnetization       =     0.04 Bohr mag/cell
     absolute magnetization    =     0.20 Bohr mag/cell

     iteration #128     ecut=    45.00 Ry     beta= 0.40
     Davidson diagonalization with overlap
     ethr =  1.13E-09,  avg # of iterations =  3.0

     total cpu time spent up to now is    51325.9 secs

     total energy              =   -4095.24995513 Ry
     Harris-Foulkes estimate   =   -4095.24996398 Ry
     estimated scf accuracy    <       0.00000269 Ry

     total magnetization       =     0.04 Bohr mag/cell
     absolute magnetization    =     0.20 Bohr mag/cell

     iteration #129     ecut=    45.00 Ry     beta= 0.40
     Davidson diagonalization with overlap
     ethr =  1.13E-09,  avg # of iterations =  3.0

     total cpu time spent up to now is    51863.0 secs

     total energy              =   -4095.24996307 Ry
     Harris-Foulkes estimate   =   -4095.24996340 Ry
     estimated scf accuracy    <       0.00000540 Ry

     total magnetization       =     0.04 Bohr mag/cell
     absolute magnetization    =     0.20 Bohr mag/cell

     iteration #130     ecut=    45.00 Ry     beta= 0.40
     Davidson diagonalization with overlap
     ethr =  1.13E-09,  avg # of iterations =  1.0

     total cpu time spent up to now is    52230.2 secs

     total energy              =   -4095.24995925 Ry
     Harris-Foulkes estimate   =   -4095.24996378 Ry
     estimated scf accuracy    <       0.00001663 Ry

     total magnetization       =     0.04 Bohr mag/cell
     absolute magnetization    =     0.20 Bohr mag/cell

     iteration #131     ecut=    45.00 Ry     beta= 0.40
     Davidson diagonalization with overlap
     ethr =  1.13E-09,  avg # of iterations =  2.1

     total cpu time spent up to now is    52663.8 secs

     total energy              =   -4095.24996330 Ry
     Harris-Foulkes estimate   =   -4095.24996347 Ry
     estimated scf accuracy    <       0.00000290 Ry

     total magnetization       =     0.04 Bohr mag/cell
     absolute magnetization    =     0.20 Bohr mag/cell

     iteration #132     ecut=    45.00 Ry     beta= 0.40
     Davidson diagonalization with overlap
     ethr =  1.13E-09,  avg # of iterations =  1.2

     total cpu time spent up to now is    53032.4 secs

     total energy              =   -4095.24995958 Ry
     Harris-Foulkes estimate   =   -4095.24996406 Ry
     estimated scf accuracy    <       0.00001202 Ry

     total magnetization       =     0.03 Bohr mag/cell
     absolute magnetization    =     0.20 Bohr mag/cell

     iteration #133     ecut=    45.00 Ry     beta= 0.40
     Davidson diagonalization with overlap
     ethr =  1.13E-09,  avg # of iterations =  2.3

     total cpu time spent up to now is    53492.9 secs

     total energy              =   -4095.24996113 Ry
     Harris-Foulkes estimate   =   -4095.24996430 Ry
     estimated scf accuracy    <       0.00001957 Ry

     total magnetization       =     0.03 Bohr mag/cell
     absolute magnetization    =     0.20 Bohr mag/cell

     iteration #134     ecut=    45.00 Ry     beta= 0.40
     Davidson diagonalization with overlap
     ethr =  1.13E-09,  avg # of iterations =  2.0

     total cpu time spent up to now is    53925.0 secs

     total energy              =   -4095.24996006 Ry
     Harris-Foulkes estimate   =   -4095.24996428 Ry
     estimated scf accuracy    <       0.00000698 Ry

     total magnetization       =     0.03 Bohr mag/cell
     absolute magnetization    =     0.20 Bohr mag/cell

     iteration #135     ecut=    45.00 Ry     beta= 0.40
     Davidson diagonalization with overlap
     ethr =  1.13E-09,  avg # of iterations =  2.4

     total cpu time spent up to now is    54386.7 secs

     total energy              =   -4095.24996004 Ry
     Harris-Foulkes estimate   =   -4095.24996492 Ry
     estimated scf accuracy    <       0.00000507 Ry

     total magnetization       =     0.03 Bohr mag/cell
     absolute magnetization    =     0.21 Bohr mag/cell

     iteration #136     ecut=    45.00 Ry     beta= 0.40
     Davidson diagonalization with overlap
     ethr =  1.13E-09,  avg # of iterations =  2.1

     total cpu time spent up to now is    54826.4 secs

     total energy              =   -4095.24996428 Ry
     Harris-Foulkes estimate   =   -4095.24996426 Ry
     estimated scf accuracy    <       0.00000154 Ry

     total magnetization       =     0.03 Bohr mag/cell
[...]
     1.1910   1.2298   1.2899   1.3884   1.4182   1.4356   1.4912   1.5210
     1.5783   1.6087   1.9030   1.9924   2.0493   2.0672   2.0842   2.1901
     2.3208   2.5353   2.5949   3.0980   3.3510   3.4156   3.7059   3.7791
     4.0705   4.8542   5.1973   5.4933   5.5288   5.8586   6.7346   6.9226
     7.2392   7.2700

     occupation numbers 
     1.0000   1.0000   1.0000   1.0000   1.0000   1.0000   1.0000   1.0000
     1.0000   1.0000   1.0000   1.0000   1.0000   1.0000   1.0000   1.0000
     1.0000   1.0000   1.0000   1.0000   1.0000   1.0000   1.0000   1.0000
     1.0000   1.0000   1.0000   1.0000   1.0000   1.0000   1.0000   1.0000
     1.0000   1.0000   1.0000   1.0000   1.0000   1.0000   1.0000   1.0000
     1.0000   1.0000   1.0000   1.0000   1.0000   1.0000   1.0000   1.0000
     1.0000   1.0000   1.0000   1.0000   1.0000   1.0000   1.0000   1.0000
     1.0000   1.0000   1.0000   1.0000   1.0000   1.0000   1.0000   1.0000
     1.0000   1.0000   1.0000   1.0000   1.0000   1.0000   1.0000   1.0000
     1.0000   1.0000   1.0000   1.0000   1.0000   1.0000   1.0000   1.0000
     1.0000   1.0000   1.0000   1.0000   1.0000   1.0000   1.0000   1.0000
     1.0000   1.0000   1.0000   1.0000   1.0000   1.0000   1.0000   1.0000
     1.0001   1.0004   1.0016   1.0109   1.0174   1.0224   1.0438   1.0577
     1.0802   1.0831   0.3426   0.1249   0.0543   0.0404   0.0302   0.0036
     0.0001   0.0000   0.0000   0.0000   0.0000   0.0000   0.0000   0.0000
     0.0000   0.0000   0.0000   0.0000   0.0000   0.0000   0.0000   0.0000
     0.0000   0.0000

          k =-0.2500 1.5000 0.1924 ( 16576 PWs)   bands (ev):

  -122.8322-122.8239-122.8085-122.8061-102.6469-102.6423-102.6024-102.6016
  -100.1404-100.1206-100.1058-100.1013 -80.1313 -80.1276 -79.9981 -79.9959
   -72.9556 -72.9503 -72.9350 -72.9338 -72.8657 -72.8614 -72.8461 -72.8461
   -64.8126 -64.8079 -64.7839 -64.7836 -64.7403 -64.7367 -64.7077 -64.7067
   -61.3018 -61.2781 -61.2580 -61.2524 -60.4823 -60.4654 -60.4548 -60.4501
   -60.3747 -60.3584 -60.3457 -60.3431 -58.6907 -58.6856 -58.5151 -58.5123
   -14.9610 -14.9583 -14.9501 -14.9450 -14.7101 -14.7075 -14.6618 -14.6590
   -12.8222 -12.7930 -12.7784 -12.7502  -8.9014  -8.8848  -8.8743  -8.8717
    -8.7370  -8.7246  -8.7065  -8.6852  -1.9262  -1.8955  -1.8495  -1.8452
    -1.8261  -1.7850  -1.7736  -1.7696  -1.7600  -1.1768  -1.1331  -1.0465
    -0.7144  -0.6638  -0.5714  -0.4310  -0.1743  -0.0153   0.0206   0.0765
     0.1040   0.2038   0.3287   0.4377   1.0634   1.1773   1.2532   1.2962
     1.3152   1.3750   1.3971   1.4482   1.4929   1.5005   1.5386   1.5761
     1.6390   1.6480   1.8124   1.8959   2.0424   2.0537   2.0747   2.1217
     2.4104   2.4654   2.5720   2.7036   3.1152   3.3239   3.5255   4.2712
     4.3569   4.7118   4.8500   4.9291   4.9774   5.2932   5.9788   6.4639
     6.9751   7.3767

     occupation numbers 
     1.0000   1.0000   1.0000   1.0000   1.0000   1.0000   1.0000   1.0000
     1.0000   1.0000   1.0000   1.0000   1.0000   1.0000   1.0000   1.0000
     1.0000   1.0000   1.0000   1.0000   1.0000   1.0000   1.0000   1.0000
     1.0000   1.0000   1.0000   1.0000   1.0000   1.0000   1.0000   1.0000
     1.0000   1.0000   1.0000   1.0000   1.0000   1.0000   1.0000   1.0000
     1.0000   1.0000   1.0000   1.0000   1.0000   1.0000   1.0000   1.0000
     1.0000   1.0000   1.0000   1.0000   1.0000   1.0000   1.0000   1.0000
     1.0000   1.0000   1.0000   1.0000   1.0000   1.0000   1.0000   1.0000
     1.0000   1.0000   1.0000   1.0000   1.0000   1.0000   1.0000   1.0000
     1.0000   1.0000   1.0000   1.0000   1.0000   1.0000   1.0000   1.0000
     1.0000   1.0000   1.0000   1.0000   1.0000   1.0000   1.0000   1.0000
     1.0000   1.0000   1.0000   1.0000   1.0000   1.0001   1.0007   1.0019
     1.0028   1.0087   1.0126   1.0265   1.0446   1.0480   1.0658   1.0796
     1.0740   1.0683   0.6692   0.3657   0.0605   0.0505   0.0356   0.0151
     0.0000   0.0000   0.0000   0.0000   0.0000   0.0000   0.0000   0.0000
     0.0000   0.0000   0.0000   0.0000   0.0000   0.0000   0.0000   0.0000
     0.0000   0.0000

          k = 0.5000-0.7500 0.1924 ( 16544 PWs)   bands (ev):

  -122.8322-122.8240-122.8085-122.8062-102.6470-102.6424-102.6024-102.6015
  -100.1404-100.1207-100.1059-100.1014 -80.1315 -80.1278 -79.9978 -79.9956
   -72.9556 -72.9503 -72.9350 -72.9339 -72.8651 -72.8609 -72.8452 -72.8451
   -64.8127 -64.8080 -64.7839 -64.7836 -64.7404 -64.7368 -64.7067 -64.7057
   -61.3016 -61.2779 -61.2578 -61.2522 -60.4816 -60.4647 -60.4542 -60.4494
   -60.3748 -60.3584 -60.3458 -60.3431 -58.6911 -58.6860 -58.5148 -58.5119
   -14.9675 -14.9648 -14.9534 -14.9480 -14.6870 -14.6844 -14.6605 -14.6575
   -12.9143 -12.9093 -12.8584 -12.8517  -8.8795  -8.8607  -8.8480  -8.8444
    -8.8168  -8.8130  -8.7981  -8.7973  -3.4056  -2.6815  -2.1474  -1.9252
    -1.8994  -1.8756  -1.8673  -1.8443  -1.7834  -1.7783  -1.7377  -1.3770
    -0.6581  -0.5025  -0.1156   0.0068   0.0375   0.1774   0.2056   0.2855
     0.2942   0.4492   0.5243   0.5826   0.6924   0.7763   0.9224   1.0224
     1.0783   1.2633   1.2925   1.3452   1.4142   1.4226   1.4952   1.5111
     1.5797   1.6182   1.9414   1.9630   1.9804   2.0599   2.0706   2.2346
     2.5046   2.6120   2.6390   2.8336   2.8977   3.2816   3.5450   3.8185
     4.0655   4.9348   5.1469   5.5877   5.8055   6.7047   6.9529   7.0335
     7.1689   7.2338

     occupation numbers 
     1.0000   1.0000   1.0000   1.0000   1.0000   1.0000   1.0000   1.0000
     1.0000   1.0000   1.0000   1.0000   1.0000   1.0000   1.0000   1.0000
     1.0000   1.0000   1.0000   1.0000   1.0000   1.0000   1.0000   1.0000
     1.0000   1.0000   1.0000   1.0000   1.0000   1.0000   1.0000   1.0000
     1.0000   1.0000   1.0000   1.0000   1.0000   1.0000   1.0000   1.0000
     1.0000   1.0000   1.0000   1.0000   1.0000   1.0000   1.0000   1.0000
     1.0000   1.0000   1.0000   1.0000   1.0000   1.0000   1.0000   1.0000
     1.0000   1.0000   1.0000   1.0000   1.0000   1.0000   1.0000   1.0000
     1.0000   1.0000   1.0000   1.0000   1.0000   1.0000   1.0000   1.0000
     1.0000   1.0000   1.0000   1.0000   1.0000   1.0000   1.0000   1.0000
     1.0000   1.0000   1.0000   1.0000   1.0000   1.0000   1.0000   1.0000
     1.0000   1.0000   1.0000   1.0000   1.0000   1.0000   1.0000   1.0000
     1.0000   1.0009   1.0017   1.0051   1.0165   1.0186   1.0456   1.0530
     1.0805   1.0817   0.2321   0.1811   0.1460   0.0457   0.0382   0.0012
     0.0000   0.0000   0.0000   0.0000   0.0000   0.0000   0.0000   0.0000
     0.0000   0.0000   0.0000   0.0000   0.0000   0.0000   0.0000   0.0000
     0.0000   0.0000

     the Fermi energy is     1.8854 ev

!    total energy              =   -4095.24996628 Ry
     Harris-Foulkes estimate   =   -4095.24996642 Ry
     estimated scf accuracy    <       0.00000089 Ry

     The total energy is the sum of the following terms:

     one-electron contribution =   -9930.51893735 Ry
     hartree contribution      =    4946.83644305 Ry
     xc contribution           =    -429.31797928 Ry
     ewald contribution        =    1317.73434573 Ry
     smearing contrib. (-TS)   =       0.01616158 Ry

     total magnetization       =     0.02 Bohr mag/cell
     absolute magnetization    =     0.21 Bohr mag/cell

     convergence has been achieved in 156 iterations

     Forces acting on atoms (cartesian axes, Ry/au):

     atom    1 type  1   force =    13.94557832    0.05134187   -0.00988168
     atom    2 type  1   force =    -0.04248372    0.04207968   -0.01653091
     atom    3 type  1   force =   -13.91291466    0.04230262   -0.00601993
     atom    4 type  1   force =    13.91293695   -0.04238297   -0.00609233
     atom    5 type  1   force =     0.04127343   -0.04213994   -0.01650049
     atom    6 type  1   force =   -13.94462916   -0.05132934   -0.00995439
     atom    7 type  1   force =    13.91212135    0.04238202    0.00610971
     atom    8 type  1   force =     0.04144859    0.04212865    0.01643231
     atom    9 type  1   force =   -13.94380077    0.05134773    0.00996490
     atom   10 type  1   force =    13.94797646   -0.05129550    0.00988085
     atom   11 type  1   force =    -0.04248767   -0.04210223    0.01653709
     atom   12 type  1   force =   -13.91501912   -0.04233259    0.00605487
     The non-local contrib.  to forces
     atom    1 type  1   force =    -9.14439460    0.22780977   -0.04243944
     atom    2 type  1   force =    -0.09790116   -0.05353778    0.03279093
     atom    3 type  1   force =     8.87925591    0.31482971   -0.02427623
     atom    4 type  1   force =    -8.87778658   -0.31486150   -0.02437436
     atom    5 type  1   force =     0.09832127    0.05342957    0.03280354
     atom    6 type  1   force =     9.14687645   -0.22773442   -0.04255021
     atom    7 type  1   force =    -8.87884258    0.31493483    0.02445949
     atom    8 type  1   force =     0.09849623   -0.05339511   -0.03280706
     atom    9 type  1   force =     9.14797907    0.22783115    0.04263342
     atom   10 type  1   force =    -9.14163890   -0.22770121    0.04250661
     atom   11 type  1   force =    -0.09795083    0.05366907   -0.03271980
     atom   12 type  1   force =     8.87696371   -0.31478548    0.02439310
     The ionic contribution  to forces
     atom    1 type  1   force =   168.26989592   10.82157691   89.66473451
     atom    2 type  1   force =   -56.73312470   11.65285433   81.39984242
     atom    3 type  1   force =  -117.10937217   11.81103073   92.62975447
     atom    4 type  1   force =   117.10937217  -11.81103073   92.62975447
     atom    5 type  1   force =    56.73312470  -11.65285433   81.39984242
     atom    6 type  1   force =  -168.26989592  -10.82157691   89.66473451
     atom    7 type  1   force =   117.10937217   11.81103073  -92.62975447
     atom    8 type  1   force =    56.73312470   11.65285433  -81.39984242
     atom    9 type  1   force =  -168.26989592   10.82157691  -89.66473451
     atom   10 type  1   force =   168.26989592  -10.82157691  -89.66473451
     atom   11 type  1   force =   -56.73312470  -11.65285433  -81.39984242
     atom   12 type  1   force =  -117.10937217  -11.81103073  -92.62975447
     The local contribution  to forces
     atom    1 type  1   force =  -145.13883362  -10.99699756  -89.63216329
     atom    2 type  1   force =    56.79341863  -11.56127301  -81.44818479
     atom    3 type  1   force =    94.27550052  -12.08167782  -92.61152600
     atom    4 type  1   force =   -94.27414814   12.08171904  -92.61134270
     atom    5 type  1   force =   -56.79446335   11.56143248  -81.44821686
     atom    6 type  1   force =   145.14016020   10.99679639  -89.63190815
     atom    7 type  1   force =   -94.27270581  -12.08189188   92.61114638
     atom    8 type  1   force =   -56.79484618  -11.56151267   81.44825709
     atom    9 type  1   force =   145.13871149  -10.99699019   89.63172054
     atom   10 type  1   force =  -145.14196035   10.99678413   89.63199570
     atom   11 type  1   force =    56.79361257   11.56112894   81.44800069
     atom   12 type  1   force =    94.27700514   12.08162446   92.61127040
     The core correction contribution to forces
     atom    1 type  1   force =    -0.03879616   -0.00107548   -0.00010344
     atom    2 type  1   force =    -0.00507886    0.00411242   -0.00092626
     atom    3 type  1   force =     0.04251671   -0.00175862   -0.00005016
     atom    4 type  1   force =    -0.04248858    0.00176027   -0.00005013
     atom    5 type  1   force =     0.00507569   -0.00410895   -0.00092653
     atom    6 type  1   force =     0.03882394    0.00107705   -0.00010390
     atom    7 type  1   force =    -0.04248510   -0.00175884    0.00005042
     atom    8 type  1   force =     0.00507862    0.00411148    0.00092594
     atom    9 type  1   force =     0.03881867   -0.00107560    0.00010373
     atom   10 type  1   force =    -0.03880498    0.00107704    0.00010379
     atom   11 type  1   force =    -0.00507697   -0.00411107    0.00092690
     atom   12 type  1   force =     0.04252456    0.00176010    0.00004985
     The Hubbard contrib.    to forces
     atom    1 type  1   force =     0.00000000    0.00000000    0.00000000
     atom    2 type  1   force =     0.00000000    0.00000000    0.00000000
     atom    3 type  1   force =     0.00000000    0.00000000    0.00000000
     atom    4 type  1   force =     0.00000000    0.00000000    0.00000000
     atom    5 type  1   force =     0.00000000    0.00000000    0.00000000
     atom    6 type  1   force =     0.00000000    0.00000000    0.00000000
     atom    7 type  1   force =     0.00000000    0.00000000    0.00000000
     atom    8 type  1   force =     0.00000000    0.00000000    0.00000000
     atom    9 type  1   force =     0.00000000    0.00000000    0.00000000
     atom   10 type  1   force =     0.00000000    0.00000000    0.00000000
     atom   11 type  1   force =     0.00000000    0.00000000    0.00000000
     atom   12 type  1   force =     0.00000000    0.00000000    0.00000000
     The SCF correction term to forces
     atom    1 type  1   force =    -0.00153068    0.00006203    0.00011850
     atom    2 type  1   force =     0.00096490   -0.00004249   -0.00002470
     atom    3 type  1   force =    -0.00005309   -0.00008759    0.00010649
     atom    4 type  1   force =    -0.00124939    0.00006374   -0.00005110
     atom    5 type  1   force =    -0.00002234   -0.00000491    0.00002544
     atom    6 type  1   force =     0.00016871    0.00014234   -0.00009814
     atom    7 type  1   force =    -0.00245480    0.00010098    0.00023639
     atom    8 type  1   force =     0.00035776    0.00010442   -0.00007273
     atom    9 type  1   force =     0.00134846    0.00003926    0.00027024
     atom   10 type  1   force =     0.00124730    0.00015524    0.00003777
     atom   11 type  1   force =     0.00081479    0.00009896    0.00020024
     atom   12 type  1   force =    -0.00137783    0.00013286    0.00012449

     Total force =    39.398665     Total SCF correction =     0.004159


     Computing stress (Cartesian axis) and pressure

          total   stress  (Ry/bohr**3)                   (kbar)     P=     1610.28
   0.03355235   0.00000002  -0.00000001         4935.72        0.00       -0.00
   0.00000002  -0.00053056  -0.00000000            0.00      -78.05       -0.00
  -0.00000001  -0.00000000  -0.00018230           -0.00       -0.00      -26.82

     kinetic stress (kbar)  16558.34     -0.01      0.00
                               -0.01  17281.22      0.00
                                0.00      0.00  17451.22

     local   stress (kbar)-330102.77      0.04     -0.05
                                0.04-259602.40     -0.01
                               -0.05     -0.01 252633.89

     nonloc. stress (kbar)   7383.82     -0.01      0.00
                               -0.01   8674.26      0.00
                                0.00      0.00   8653.78

     hartree stress (kbar) 171881.68     -0.02      0.04
                               -0.02 151160.17      0.00
                                0.04      0.00 -98510.60

     exc-cor stress (kbar)  -5147.33      0.00      0.00
                                0.00  -5169.55      0.00
                                0.00      0.00  -5174.12

     corecor stress (kbar)   -979.41      0.00     -0.00
                                0.00   -985.89      0.00
                               -0.00      0.00   -985.91

     ewald   stress (kbar) 145341.38     -0.00     -0.00
                               -0.00  88564.15     -0.00
                               -0.00     -0.00-174095.08

     hubbard stress (kbar)      0.00      0.00      0.00
                                0.00      0.00      0.00
                                0.00      0.00      0.00

     london  stress (kbar)      0.00      0.00      0.00
                                0.00      0.00      0.00
                                0.00      0.00      0.00

     DFT-D3  stress (kbar)      0.00      0.00      0.00
                                0.00      0.00      0.00
                                0.00      0.00      0.00

     XDM     stress (kbar)      0.00      0.00      0.00
                                0.00      0.00      0.00
                                0.00      0.00      0.00

     dft-nl  stress (kbar)      0.00      0.00      0.00
                                0.00      0.00      0.00
                                0.00      0.00      0.00

     TS-vdW  stress (kbar)      0.00      0.00      0.00
                                0.00      0.00      0.00
                                0.00      0.00      0.00



     Writing output data file /tmp//ni_100_slab+vacuum_scf.save/
 
     init_run     :     48.65s CPU    144.11s WALL (       1 calls)
     electrons    :  17230.04s CPU  62047.64s WALL (       1 calls)
     forces       :     10.81s CPU     35.57s WALL (       1 calls)
     stress       :     43.55s CPU    139.25s WALL (       1 calls)

     Called by init_run:
     wfcinit      :     46.50s CPU    138.78s WALL (       1 calls)
     wfcinit:atom :      0.15s CPU      0.31s WALL (      72 calls)
     wfcinit:wfcr :     44.99s CPU    135.77s WALL (      72 calls)
     potinit      :      0.66s CPU      1.49s WALL (       1 calls)
     hinit0       :      1.02s CPU      2.79s WALL (       1 calls)

     Called by electrons:
     c_bands      :  14782.80s CPU  53291.47s WALL (     156 calls)
     sum_band     :   2368.30s CPU   8476.38s WALL (     156 calls)
     v_of_rho     :     27.35s CPU     90.14s WALL (     157 calls)
     v_h          :      1.15s CPU      3.97s WALL (     157 calls)
     v_xc         :     26.51s CPU     87.19s WALL (     159 calls)
     newd         :     34.44s CPU    120.70s WALL (     157 calls)
     mix_rho      :     13.70s CPU     52.87s WALL (     156 calls)

     Called by c_bands:
     init_us_2    :     44.01s CPU     47.07s WALL (   22680 calls)
     cegterg      :  14271.12s CPU  51667.84s WALL (   11232 calls)

     Called by sum_band:
     sum_band:bec :      3.26s CPU      3.64s WALL (   11232 calls)
     addusdens    :     50.45s CPU    164.78s WALL (     156 calls)

     Called by *egterg:
     h_psi        :   9188.98s CPU  33153.74s WALL (   28763 calls)
     s_psi        :    552.67s CPU   1716.55s WALL (   28763 calls)
     g_psi        :     41.99s CPU    184.92s WALL (   17459 calls)
     cdiaghg      :   1999.88s CPU   8106.60s WALL (   28691 calls)
     cegterg:over :    985.12s CPU   3563.30s WALL (   17459 calls)
     cegterg:upda :    577.90s CPU   1635.82s WALL (   17459 calls)
     cegterg:last :    409.64s CPU   1109.27s WALL (   11376 calls)
     cdiaghg:chol :    134.42s CPU    634.78s WALL (   28691 calls)
     cdiaghg:inve :     35.71s CPU    115.13s WALL (   28691 calls)
     cdiaghg:para :    338.06s CPU   1274.98s WALL (   57382 calls)

     Called by h_psi:
     h_psi:calbec :    705.47s CPU   2265.82s WALL (   28763 calls)
     vloc_psi     :   7907.55s CPU  29592.19s WALL (   28763 calls)
     add_vuspsi   :    556.64s CPU   1235.95s WALL (   28763 calls)

     General routines
     calbec       :   1040.03s CPU   3342.90s WALL (   40355 calls)
     fft          :     15.41s CPU     66.27s WALL (    3963 calls)
     ffts         :      1.05s CPU      3.81s WALL (     626 calls)
     fftw         :   9392.45s CPU  36307.02s WALL ( 7680274 calls)
     interpolate  :      1.63s CPU      5.84s WALL (     314 calls)
 
     Parallel routines
     fft_scatt_xy :    598.53s CPU    652.77s WALL ( 7684863 calls)
     fft_scatt_yz :   6775.61s CPU  33519.42s WALL ( 7684863 calls)
 
     PWSCF        :      4h49m CPU     17h20m WALL

 
   This run was terminated on:   5:42:56  17Aug2022            

=------------------------------------------------------------------------------=
   JOB DONE.
=------------------------------------------------------------------------------=
