
     Program PWSCF v.6.5 starts on 22Aug2022 at 17:10:28 

     This program is part of the open-source Quantum ESPRESSO suite
     for quantum simulation of materials; please cite
         "P. Giannozzi et al., J. Phys.:Condens. Matter 21 395502 (2009);
         "P. Giannozzi et al., J. Phys.:Condens. Matter 29 465901 (2017);
          URL http://www.quantum-espresso.org", 
     in publications or presentations arising from this work. More details at
     http://www.quantum-espresso.org/quote

     Parallel version (MPI), running on     8 processors

     MPI processes distributed on     1 nodes
     R & G space division:  proc/nbgrp/npool/nimage =       8
     Waiting for input...
     Reading input from standard input

     Current dimensions of program PWSCF are:
     Max number of different atomic species (ntypx) = 10
     Max number of k-points (npk) =  40000
     Max angular momentum in pseudopotentials (lmaxx) =  3
               file O.pbesol-n-kjpaw_psl.0.1.UPF: wavefunction(s)  2P renormalized

     Subspace diagonalization in iterative solution of the eigenvalue problem:
     one sub-group per band group will be used
     scalapack distributed-memory algorithm (size of sub-group:  2*  2 procs)

 
     Parallelization info
     --------------------
     sticks:   dense  smooth     PW     G-vecs:    dense   smooth      PW
     Min        1030     514    143                87478    30912    4533
     Max        1031     515    144                87483    30917    4536
     Sum        8245    4119   1147               699835   247329   36281
 


     bravais-lattice index     =            0
     lattice parameter (alat)  =      19.1327  a.u.
     unit-cell volume          =    1831.1486 (a.u.)^3
     number of atoms/cell      =           24
     number of atomic types    =            4
     number of electrons       =       312.00
     number of Kohn-Sham states=          187
     kinetic-energy cutoff     =     100.0000  Ry
     charge density cutoff     =     800.0000  Ry
     convergence threshold     =      1.0E-06
     mixing beta               =       0.4000
     number of iterations used =            8  plain     mixing
     Exchange-correlation= SLA  PW   PSX  PSC
                           (   1   4  10   8   0   0   0)

     celldm(1)=  19.132690  celldm(2)=   0.000000  celldm(3)=   0.000000
     celldm(4)=   0.000000  celldm(5)=   0.000000  celldm(6)=   0.000000

     crystal axes: (cart. coord. in units of alat)
               a(1) = (   1.000000   0.000000   0.000000 )  
               a(2) = (   0.000000   0.353553   0.000000 )  
               a(3) = (   0.000000   0.000000   0.739504 )  

     reciprocal axes: (cart. coord. in units 2 pi/alat)
               b(1) = (  1.000000  0.000000  0.000000 )  
               b(2) = (  0.000000  2.828428  0.000000 )  
               b(3) = (  0.000000  0.000000  1.352258 )  


     PseudoPot. # 1 for Ni read from file:
     /home/zczlx99/q-e/pseudo/DFT/ni_pbesol_v1.4.uspp.F.UPF
     MD5 check sum: de937c0c8ae4b350e69c02b76d8a83cb
     Pseudo is Ultrasoft + core correction, Zval = 18.0
     Generated by new atomic code, or converted to UPF format
     Using radial grid of  865 points,  6 beta functions with: 
                l(1) =   0
                l(2) =   0
                l(3) =   1
                l(4) =   1
                l(5) =   2
                l(6) =   2
     Q(r) pseudized with 10 coefficients,  rinner =    0.980   0.980   0.980
                                                       0.980   0.980

     PseudoPot. # 2 for O  read from file:
     /home/zczlx99/q-e/pseudo/DFT/O.pbesol-n-kjpaw_psl.0.1.UPF
     MD5 check sum: 81d73d1479e654e5638b0319f0d6c2c7
     Pseudo is Projector augmented-wave + core cor, Zval =  6.0
     Generated using "atomic" code by A. Dal Corso v.6.0 svn rev. 13079
     Shape of augmentation charge: BESSEL
     Using radial grid of 1095 points,  4 beta functions with: 
                l(1) =   0
                l(2) =   0
                l(3) =   1
                l(4) =   1
     Q(r) pseudized with 0 coefficients 


     PseudoPot. # 3 for Ti read from file:
     /home/zczlx99/q-e/pseudo/DFT/ti_pbesol_v1.4.uspp.F.UPF
     MD5 check sum: 193cf2c0c3c6a4da613d69453fa7e3e9
     Pseudo is Ultrasoft + core correction, Zval = 12.0
     Generated by new atomic code, or converted to UPF format
     Using radial grid of  851 points,  6 beta functions with: 
                l(1) =   0
                l(2) =   0
                l(3) =   1
                l(4) =   1
                l(5) =   2
                l(6) =   2
     Q(r) pseudized with  6 coefficients,  rinner =    1.000   1.000   1.000
                                                       1.000   1.000

     PseudoPot. # 4 for Zr read from file:
     /home/zczlx99/q-e/pseudo/DFT/zr_pbesol_v1.uspp.F.UPF
     MD5 check sum: f29f2a20533738a515abe666fee35838
     Pseudo is Ultrasoft + core correction, Zval = 12.0
     Generated by new atomic code, or converted to UPF format
     Using radial grid of  887 points,  6 beta functions with: 
                l(1) =   0
                l(2) =   0
                l(3) =   1
                l(4) =   1
                l(5) =   2
                l(6) =   2
     Q(r) pseudized with  6 coefficients,  rinner =    1.200   1.200   1.200
                                                       1.200   1.200

     atomic species   valence    mass     pseudopotential
        Ni            18.00    58.69340     Ni( 1.00)
        O              6.00    15.99940     O ( 1.00)
        Ti            12.00    47.86700     Ti( 1.00)
        Zr            12.00    91.22400     Zr( 1.00)

     Starting magnetic structure 
     atomic species   magnetization
        Ni           0.278
        O            0.100
        Ti           0.417
        Zr           0.417

     No symmetry found


                                    s                        frac. trans.

      isym =  1     identity                                     

 cryst.   s( 1) = (     1          0          0      )
                  (     0          1          0      )
                  (     0          0          1      )

 cart.    s( 1) = (  1.0000000  0.0000000  0.0000000 )
                  (  0.0000000  1.0000000  0.0000000 )
                  (  0.0000000  0.0000000  1.0000000 )


   Cartesian axes

     site n.     atom                  positions (alat units)
         1           Zr  tau(   1) = (   0.0468750   0.1459866   0.1459866  )
         2           Zr  tau(   2) = (   0.5468750   0.1459866   0.1459866  )
         3           O   tau(   3) = (   0.1718750   0.1459866   0.3227633  )
         4           O   tau(   4) = (   0.6718750   0.1459866   0.3227633  )
         5           O   tau(   5) = (   0.4218749   0.1459866   0.3227633  )
         6           O   tau(   6) = (   0.9218750   0.1459866   0.3227633  )
         7           O   tau(   7) = (   0.1718750   0.3227633   0.1459866  )
         8           O   tau(   8) = (   0.6718750   0.3227633   0.1459866  )
         9           O   tau(   9) = (   0.4218749   0.3227633   0.1459866  )
        10           O   tau(  10) = (   0.9218750   0.3227633   0.1459866  )
        11           Ni  tau(  11) = (   0.0699886   0.1523850   0.5188821  )
        12           Ni  tau(  12) = (   0.4107433   0.1523850   0.5188821  )
        13           Ni  tau(  13) = (   0.7514981   0.1523850   0.5188821  )
        14           Ni  tau(  14) = (   0.2403659   0.3227624   0.5188821  )
        15           Ni  tau(  15) = (   0.5811207   0.3227624   0.5188821  )
        16           Ni  tau(  16) = (   0.9218755   0.3227624   0.5188821  )
        17           Ni  tau(  17) = (   0.2403659   0.1523850   0.6892595  )
        18           Ni  tau(  18) = (   0.5811207   0.1523850   0.6892595  )
        19           Ni  tau(  19) = (   0.9218755   0.1523850   0.6892595  )
        20           Ni  tau(  20) = (   0.0699886   0.3227624   0.6892595  )
        21           Ni  tau(  21) = (   0.4107433   0.3227624   0.6892595  )
        22           Ni  tau(  22) = (   0.7514981   0.3227624   0.6892595  )
        23           Ti  tau(  23) = (   0.2968750   0.3227633   0.3227633  )
        24           Ti  tau(  24) = (   0.7968750   0.3227633   0.3227633  )

   Crystallographic axes

     site n.     atom                  positions (cryst. coord.)
         1           Zr  tau(   1) = (  0.0468750  0.4129124  0.1974114  )
         2           Zr  tau(   2) = (  0.5468750  0.4129124  0.1974114  )
         3           O   tau(   3) = (  0.1718750  0.4129124  0.4364591  )
         4           O   tau(   4) = (  0.6718750  0.4129124  0.4364591  )
         5           O   tau(   5) = (  0.4218749  0.4129124  0.4364591  )
         6           O   tau(   6) = (  0.9218750  0.4129124  0.4364591  )
         7           O   tau(   7) = (  0.1718750  0.9129127  0.1974114  )
         8           O   tau(   8) = (  0.6718750  0.9129127  0.1974114  )
         9           O   tau(   9) = (  0.4218749  0.9129127  0.1974114  )
        10           O   tau(  10) = (  0.9218750  0.9129127  0.1974114  )
        11           Ni  tau(  11) = (  0.0699886  0.4310101  0.7016622  )
        12           Ni  tau(  12) = (  0.4107433  0.4310101  0.7016622  )
        13           Ni  tau(  13) = (  0.7514981  0.4310101  0.7016622  )
        14           Ni  tau(  14) = (  0.2403659  0.9129102  0.7016622  )
        15           Ni  tau(  15) = (  0.5811207  0.9129102  0.7016622  )
        16           Ni  tau(  16) = (  0.9218755  0.9129102  0.7016622  )
        17           Ni  tau(  17) = (  0.2403659  0.4310101  0.9320563  )
        18           Ni  tau(  18) = (  0.5811207  0.4310101  0.9320563  )
        19           Ni  tau(  19) = (  0.9218755  0.4310101  0.9320563  )
        20           Ni  tau(  20) = (  0.0699886  0.9129102  0.9320563  )
        21           Ni  tau(  21) = (  0.4107433  0.9129102  0.9320563  )
        22           Ni  tau(  22) = (  0.7514981  0.9129102  0.9320563  )
        23           Ti  tau(  23) = (  0.2968750  0.9129127  0.4364591  )
        24           Ti  tau(  24) = (  0.7968750  0.9129127  0.4364591  )

     number of k points=     8  Marzari-Vanderbilt smearing, width (Ry)=  0.0147
                       cart. coord. in units 2pi/alat
        k(    1) = (   0.0000000   0.0000000   0.0000000), wk =   0.1250000
        k(    2) = (   0.0000000   0.0000000  -0.6761288), wk =   0.1250000
        k(    3) = (   0.0000000  -1.4142138   0.0000000), wk =   0.1250000
        k(    4) = (   0.0000000  -1.4142138  -0.6761288), wk =   0.1250000
        k(    5) = (  -0.5000000   0.0000000   0.0000000), wk =   0.1250000
        k(    6) = (  -0.5000000   0.0000000  -0.6761288), wk =   0.1250000
        k(    7) = (  -0.5000000  -1.4142138   0.0000000), wk =   0.1250000
        k(    8) = (  -0.5000000  -1.4142138  -0.6761288), wk =   0.1250000

                       cryst. coord.
        k(    1) = (   0.0000000   0.0000000   0.0000000), wk =   0.1250000
        k(    2) = (   0.0000000   0.0000000  -0.5000000), wk =   0.1250000
        k(    3) = (   0.0000000  -0.5000000   0.0000000), wk =   0.1250000
        k(    4) = (   0.0000000  -0.5000000  -0.5000000), wk =   0.1250000
        k(    5) = (  -0.5000000   0.0000000   0.0000000), wk =   0.1250000
        k(    6) = (  -0.5000000   0.0000000  -0.5000000), wk =   0.1250000
        k(    7) = (  -0.5000000  -0.5000000   0.0000000), wk =   0.1250000
        k(    8) = (  -0.5000000  -0.5000000  -0.5000000), wk =   0.1250000

     Dense  grid:   699835 G-vectors     FFT dimensions: ( 180,  64, 128)

     Smooth grid:   247329 G-vectors     FFT dimensions: ( 125,  45,  96)

     Dynamical RAM for                 wfc:      11.03 MB

     Dynamical RAM for     wfc (w. buffer):     187.48 MB

     Dynamical RAM for           str. fact:       5.34 MB

     Dynamical RAM for           local pot:       0.00 MB

     Dynamical RAM for          nlocal pot:      20.76 MB

     Dynamical RAM for                qrad:      27.61 MB

     Dynamical RAM for          rho,v,vnew:      16.45 MB

     Dynamical RAM for               rhoin:       5.48 MB

     Dynamical RAM for            rho*nmix:      42.71 MB

     Dynamical RAM for           G-vectors:       5.24 MB

     Dynamical RAM for          h,s,v(r/c):       6.40 MB

     Dynamical RAM for          <psi|beta>:       1.00 MB

     Dynamical RAM for                 psi:      44.11 MB

     Dynamical RAM for                hpsi:      44.11 MB

     Dynamical RAM for                spsi:      44.11 MB

     Dynamical RAM for      wfcinit/wfcrot:      28.86 MB

     Dynamical RAM for           addusdens:     265.63 MB

     Dynamical RAM for          addusforce:     343.24 MB

     Dynamical RAM for         addusstress:     270.30 MB

     Estimated static dynamical RAM per process >     326.19 MB

     Estimated max dynamical RAM per process >     669.43 MB

     Estimated total dynamical RAM >       5.23 GB
     Generating pointlists ...
     new r_m :   0.0811 (alat units)  1.5511 (a.u.) for type    1
     new r_m :   0.0811 (alat units)  1.5511 (a.u.) for type    2
     new r_m :   0.0842 (alat units)  1.6108 (a.u.) for type    3
     new r_m :   0.0822 (alat units)  1.5729 (a.u.) for type    4

     Check: negative core charge=   -0.000003

     Initial potential from superposition of free atoms

     starting charge  285.99596, renormalised to  312.00000
     Starting wfcs are  234 randomized atomic wfcs
     Checking if some PAW data can be deallocated... 
       PAW data deallocated on    4 nodes for type:  2

     total cpu time spent up to now is      231.6 secs

     Self-consistent Calculation

     iteration #  1     ecut=   100.00 Ry     beta= 0.40
     Davidson diagonalization with overlap
     ethr =  1.00E-02,  avg # of iterations =  3.1

     total cpu time spent up to now is      983.5 secs

     total energy              =   -4801.07395315 Ry
     Harris-Foulkes estimate   =   -4933.77269288 Ry
     estimated scf accuracy    <     251.78841565 Ry

     total magnetization       =    22.14 Bohr mag/cell
     absolute magnetization    =    23.88 Bohr mag/cell

     iteration #  2     ecut=   100.00 Ry     beta= 0.40
     Davidson diagonalization with overlap
     ethr =  1.00E-02,  avg # of iterations =  3.5

     total cpu time spent up to now is     1820.4 secs

     total energy              =   -4826.18480575 Ry
     Harris-Foulkes estimate   =   -4925.04774380 Ry
     estimated scf accuracy    <     314.44545540 Ry

     total magnetization       =     4.23 Bohr mag/cell
     absolute magnetization    =     5.52 Bohr mag/cell

     iteration #  3     ecut=   100.00 Ry     beta= 0.40
     Davidson diagonalization with overlap
     ethr =  1.00E-02,  avg # of iterations =  4.7

     total cpu time spent up to now is     2749.4 secs

     total energy              =   -4821.85178631 Ry
     Harris-Foulkes estimate   =   -4916.32702380 Ry
     estimated scf accuracy    <     704.62679939 Ry

     total magnetization       =    22.51 Bohr mag/cell
     absolute magnetization    =    23.70 Bohr mag/cell

     iteration #  4     ecut=   100.00 Ry     beta= 0.40
     Davidson diagonalization with overlap
     ethr =  1.00E-02,  avg # of iterations =  4.2

     total cpu time spent up to now is     3545.7 secs

     total energy              =   -4858.87356004 Ry
     Harris-Foulkes estimate   =   -4917.95901408 Ry
     estimated scf accuracy    <     783.89787727 Ry

     total magnetization       =     7.27 Bohr mag/cell
     absolute magnetization    =     8.10 Bohr mag/cell

     iteration #  5     ecut=   100.00 Ry     beta= 0.40
     Davidson diagonalization with overlap
     ethr =  1.00E-02,  avg # of iterations =  4.3

     total cpu time spent up to now is     4263.8 secs

     total energy              =   -4883.21917348 Ry
     Harris-Foulkes estimate   =   -4891.90251476 Ry
     estimated scf accuracy    <      74.40173425 Ry

     total magnetization       =     6.52 Bohr mag/cell
     absolute magnetization    =     9.39 Bohr mag/cell

     iteration #  6     ecut=   100.00 Ry     beta= 0.40
     Davidson diagonalization with overlap
     ethr =  1.00E-02,  avg # of iterations =  1.0

     total cpu time spent up to now is     4647.6 secs

     total energy              =   -4883.63019953 Ry
     Harris-Foulkes estimate   =   -4887.39524520 Ry
     estimated scf accuracy    <      46.56222535 Ry

     total magnetization       =    10.85 Bohr mag/cell
     absolute magnetization    =    12.95 Bohr mag/cell

     iteration #  7     ecut=   100.00 Ry     beta= 0.40
     Davidson diagonalization with overlap
     ethr =  1.00E-02,  avg # of iterations =  1.1

     total cpu time spent up to now is     5038.3 secs

     total energy              =   -4883.62500161 Ry
     Harris-Foulkes estimate   =   -4886.26865615 Ry
     estimated scf accuracy    <      35.48632118 Ry

     total magnetization       =    10.71 Bohr mag/cell
     absolute magnetization    =    12.74 Bohr mag/cell

     iteration #  8     ecut=   100.00 Ry     beta= 0.40
     Davidson diagonalization with overlap
     ethr =  1.00E-02,  avg # of iterations =  1.0

     total cpu time spent up to now is     5428.9 secs

     total energy              =   -4883.08683080 Ry
     Harris-Foulkes estimate   =   -4885.52196116 Ry
     estimated scf accuracy    <      39.66523128 Ry

     total magnetization       =     8.33 Bohr mag/cell
     absolute magnetization    =    10.69 Bohr mag/cell

     iteration #  9     ecut=   100.00 Ry     beta= 0.40
     Davidson diagonalization with overlap
     ethr =  1.00E-02,  avg # of iterations =  1.0

     total cpu time spent up to now is     5820.6 secs

     total energy              =   -4882.91551114 Ry
     Harris-Foulkes estimate   =   -4884.70359630 Ry
     estimated scf accuracy    <      29.02656383 Ry

     total magnetization       =    10.00 Bohr mag/cell
     absolute magnetization    =    12.01 Bohr mag/cell

     iteration # 10     ecut=   100.00 Ry     beta= 0.40
     Davidson diagonalization with overlap
     ethr =  9.30E-03,  avg # of iterations =  1.0

     total cpu time spent up to now is     6202.0 secs

     total energy              =   -4882.20461184 Ry
     Harris-Foulkes estimate   =   -4884.11142591 Ry
     estimated scf accuracy    <      17.09010711 Ry

     total magnetization       =     8.79 Bohr mag/cell
     absolute magnetization    =    10.87 Bohr mag/cell

     iteration # 11     ecut=   100.00 Ry     beta= 0.40
     Davidson diagonalization with overlap
     ethr =  5.48E-03,  avg # of iterations =  4.1

     total cpu time spent up to now is     6712.1 secs

     total energy              =   -4882.51671003 Ry
     Harris-Foulkes estimate   =   -4883.75210532 Ry
     estimated scf accuracy    <      12.34025689 Ry

     total magnetization       =    11.64 Bohr mag/cell
     absolute magnetization    =    13.36 Bohr mag/cell

     iteration # 12     ecut=   100.00 Ry     beta= 0.40
     Davidson diagonalization with overlap
     ethr =  3.96E-03,  avg # of iterations =  1.4

     total cpu time spent up to now is     7108.1 secs

     total energy              =   -4882.40628478 Ry
     Harris-Foulkes estimate   =   -4883.35447482 Ry
     estimated scf accuracy    <       4.53502813 Ry

     total magnetization       =     9.55 Bohr mag/cell
     absolute magnetization    =    11.59 Bohr mag/cell

     iteration # 13     ecut=   100.00 Ry     beta= 0.40
     Davidson diagonalization with overlap
     ethr =  1.45E-03,  avg # of iterations =  4.1

     total cpu time spent up to now is     7699.2 secs

     total energy              =   -4878.24921143 Ry
     Harris-Foulkes estimate   =   -4886.63589887 Ry
     estimated scf accuracy    <     137.26736889 Ry

     total magnetization       =    11.15 Bohr mag/cell
     absolute magnetization    =    12.36 Bohr mag/cell

     iteration # 14     ecut=   100.00 Ry     beta= 0.40
     Davidson diagonalization with overlap
     ethr =  1.45E-03,  avg # of iterations =  3.5

     total cpu time spent up to now is     8242.7 secs

     total energy              =   -4882.95883083 Ry
     Harris-Foulkes estimate   =   -4883.61754782 Ry
     estimated scf accuracy    <      10.54489615 Ry

     total magnetization       =     8.56 Bohr mag/cell
     absolute magnetization    =    10.20 Bohr mag/cell

     iteration # 15     ecut=   100.00 Ry     beta= 0.40
     Davidson diagonalization with overlap
     ethr =  1.45E-03,  avg # of iterations =  1.2

     total cpu time spent up to now is     8636.8 secs

     total energy              =   -4882.76174334 Ry
     Harris-Foulkes estimate   =   -4883.89918487 Ry
     estimated scf accuracy    <      20.43805332 Ry

     total magnetization       =     9.34 Bohr mag/cell
     absolute magnetization    =    11.10 Bohr mag/cell

     iteration # 16     ecut=   100.00 Ry     beta= 0.40
     Davidson diagonalization with overlap
     ethr =  1.45E-03,  avg # of iterations =  1.1

     total cpu time spent up to now is     9022.1 secs

     total energy              =   -4883.05290578 Ry
     Harris-Foulkes estimate   =   -4883.50519950 Ry
     estimated scf accuracy    <       6.22107133 Ry

     total magnetization       =     8.86 Bohr mag/cell
     absolute magnetization    =    10.38 Bohr mag/cell

     iteration # 17     ecut=   100.00 Ry     beta= 0.40
     Davidson diagonalization with overlap
     ethr =  1.45E-03,  avg # of iterations =  1.0

     total cpu time spent up to now is     9400.8 secs

     total energy              =   -4883.14570020 Ry
     Harris-Foulkes estimate   =   -4883.40974321 Ry
     estimated scf accuracy    <       4.98223247 Ry

     total magnetization       =     8.80 Bohr mag/cell
     absolute magnetization    =    10.31 Bohr mag/cell

     iteration # 18     ecut=   100.00 Ry     beta= 0.40
     Davidson diagonalization with overlap
     ethr =  1.45E-03,  avg # of iterations =  1.0

     total cpu time spent up to now is     9782.6 secs

     total energy              =   -4883.12751593 Ry
     Harris-Foulkes estimate   =   -4883.47399954 Ry
     estimated scf accuracy    <       4.99184706 Ry

     total magnetization       =     8.96 Bohr mag/cell
     absolute magnetization    =    10.73 Bohr mag/cell

     iteration # 19     ecut=   100.00 Ry     beta= 0.40
     Davidson diagonalization with overlap
     ethr =  1.45E-03,  avg # of iterations =  1.0

     total cpu time spent up to now is    10179.0 secs

     total energy              =   -4883.22672784 Ry
     Harris-Foulkes estimate   =   -4883.33718038 Ry
     estimated scf accuracy    <       0.88633007 Ry

     total magnetization       =     8.91 Bohr mag/cell
     absolute magnetization    =    10.49 Bohr mag/cell

     iteration # 20     ecut=   100.00 Ry     beta= 0.40
     Davidson diagonalization with overlap
     ethr =  2.84E-04,  avg # of iterations =  2.0

     total cpu time spent up to now is    10598.9 secs

     total energy              =   -4883.11918603 Ry
     Harris-Foulkes estimate   =   -4883.48445152 Ry
     estimated scf accuracy    <       5.29793736 Ry

     total magnetization       =     8.94 Bohr mag/cell
     absolute magnetization    =    10.61 Bohr mag/cell

     iteration # 21     ecut=   100.00 Ry     beta= 0.40
     Davidson diagonalization with overlap
     ethr =  2.84E-04,  avg # of iterations =  2.2

     total cpu time spent up to now is    11035.8 secs

     total energy              =   -4883.16283734 Ry
     Harris-Foulkes estimate   =   -4883.46594870 Ry
     estimated scf accuracy    <       3.76634622 Ry

     total magnetization       =     8.95 Bohr mag/cell
     absolute magnetization    =    10.34 Bohr mag/cell

     iteration # 22     ecut=   100.00 Ry     beta= 0.40
     Davidson diagonalization with overlap
     ethr =  2.84E-04,  avg # of iterations =  1.5

     total cpu time spent up to now is    11427.2 secs

     total energy              =   -4883.20609320 Ry
     Harris-Foulkes estimate   =   -4883.37511877 Ry
     estimated scf accuracy    <       2.53978583 Ry

     total magnetization       =     8.93 Bohr mag/cell
     absolute magnetization    =    10.44 Bohr mag/cell

     iteration # 23     ecut=   100.00 Ry     beta= 0.40
     Davidson diagonalization with overlap
     ethr =  2.84E-04,  avg # of iterations =  2.9

     total cpu time spent up to now is    11892.7 secs

     total energy              =   -4882.81826552 Ry
     Harris-Foulkes estimate   =   -4883.72468150 Ry
     estimated scf accuracy    <      19.10943400 Ry

     total magnetization       =     5.62 Bohr mag/cell
     absolute magnetization    =     7.42 Bohr mag/cell

     iteration # 24     ecut=   100.00 Ry     beta= 0.40
     Davidson diagonalization with overlap
     ethr =  2.84E-04,  avg # of iterations =  2.6

     total cpu time spent up to now is    12377.8 secs

     total energy              =   -4883.12927199 Ry
     Harris-Foulkes estimate   =   -4883.44558706 Ry
     estimated scf accuracy    <       3.58269684 Ry

     total magnetization       =     9.57 Bohr mag/cell
     absolute magnetization    =    11.50 Bohr mag/cell

     iteration # 25     ecut=   100.00 Ry     beta= 0.40
     Davidson diagonalization with overlap
     ethr =  2.84E-04,  avg # of iterations =  1.1

     total cpu time spent up to now is    12762.6 secs

     total energy              =   -4883.28033128 Ry
     Harris-Foulkes estimate   =   -4883.34336476 Ry
     estimated scf accuracy    <       1.10424562 Ry

     total magnetization       =     8.68 Bohr mag/cell
     absolute magnetization    =    10.08 Bohr mag/cell

     iteration # 26     ecut=   100.00 Ry     beta= 0.40
     Davidson diagonalization with overlap
     ethr =  2.84E-04,  avg # of iterations =  1.0

     total cpu time spent up to now is    13146.6 secs

     total energy              =   -4883.31523763 Ry
     Harris-Foulkes estimate   =   -4883.32825679 Ry
     estimated scf accuracy    <       0.51903115 Ry

     total magnetization       =     8.76 Bohr mag/cell
     absolute magnetization    =    10.22 Bohr mag/cell

     iteration # 27     ecut=   100.00 Ry     beta= 0.40
     Davidson diagonalization with overlap
     ethr =  1.66E-04,  avg # of iterations =  1.0

     total cpu time spent up to now is    13540.5 secs

     total energy              =   -4883.30259461 Ry
     Harris-Foulkes estimate   =   -4883.34002095 Ry
     estimated scf accuracy    <       0.53080112 Ry

     total magnetization       =     8.67 Bohr mag/cell
     absolute magnetization    =    10.17 Bohr mag/cell

     iteration # 28     ecut=   100.00 Ry     beta= 0.40
     Davidson diagonalization with overlap
     ethr =  1.66E-04,  avg # of iterations =  1.0

     total cpu time spent up to now is    13928.9 secs

     total energy              =   -4883.31942299 Ry
     Harris-Foulkes estimate   =   -4883.33031260 Ry
     estimated scf accuracy    <       0.34358311 Ry

     total magnetization       =     8.73 Bohr mag/cell
     absolute magnetization    =    10.21 Bohr mag/cell

     iteration # 29     ecut=   100.00 Ry     beta= 0.40
     Davidson diagonalization with overlap
     ethr =  1.10E-04,  avg # of iterations =  1.0

     total cpu time spent up to now is    14315.1 secs

     total energy              =   -4883.32090128 Ry
     Harris-Foulkes estimate   =   -4883.33062891 Ry
     estimated scf accuracy    <       0.22789459 Ry

     total magnetization       =     8.75 Bohr mag/cell
     absolute magnetization    =    10.23 Bohr mag/cell

     iteration # 30     ecut=   100.00 Ry     beta= 0.40
     Davidson diagonalization with overlap
     ethr =  7.30E-05,  avg # of iterations =  1.3

     total cpu time spent up to now is    14706.1 secs

     total energy              =   -4883.32223028 Ry
     Harris-Foulkes estimate   =   -4883.33056928 Ry
     estimated scf accuracy    <       0.13008622 Ry

     total magnetization       =     8.66 Bohr mag/cell
     absolute magnetization    =    10.14 Bohr mag/cell

     iteration # 31     ecut=   100.00 Ry     beta= 0.40
     Davidson diagonalization with overlap
     ethr =  4.17E-05,  avg # of iterations =  1.0

     total cpu time spent up to now is    15093.6 secs

     total energy              =   -4883.32109252 Ry
     Harris-Foulkes estimate   =   -4883.33282424 Ry
     estimated scf accuracy    <       0.20999168 Ry

     total magnetization       =     8.61 Bohr mag/cell
     absolute magnetization    =    10.09 Bohr mag/cell

     iteration # 32     ecut=   100.00 Ry     beta= 0.40
     Davidson diagonalization with overlap
     ethr =  4.17E-05,  avg # of iterations =  1.5

     total cpu time spent up to now is    15502.1 secs

     total energy              =   -4883.30402238 Ry
     Harris-Foulkes estimate   =   -4883.34637040 Ry
     estimated scf accuracy    <       1.10378167 Ry

     total magnetization       =     8.64 Bohr mag/cell
     absolute magnetization    =    10.13 Bohr mag/cell

     iteration # 33     ecut=   100.00 Ry     beta= 0.40
     Davidson diagonalization with overlap
     ethr =  4.17E-05,  avg # of iterations =  3.2

     total cpu time spent up to now is    15969.9 secs

     total energy              =   -4883.31056119 Ry
     Harris-Foulkes estimate   =   -4883.34429649 Ry
     estimated scf accuracy    <       0.46090603 Ry

     total magnetization       =     8.71 Bohr mag/cell
     absolute magnetization    =    10.15 Bohr mag/cell

     iteration # 34     ecut=   100.00 Ry     beta= 0.40
     Davidson diagonalization with overlap
     ethr =  4.17E-05,  avg # of iterations =  1.1

     total cpu time spent up to now is    16358.5 secs

     total energy              =   -4883.32353025 Ry
     Harris-Foulkes estimate   =   -4883.33407798 Ry
     estimated scf accuracy    <       0.12275702 Ry

     total magnetization       =     8.66 Bohr mag/cell
     absolute magnetization    =    10.14 Bohr mag/cell

     iteration # 35     ecut=   100.00 Ry     beta= 0.40
     Davidson diagonalization with overlap
     ethr =  3.93E-05,  avg # of iterations =  1.0

     total cpu time spent up to now is    16747.8 secs

     total energy              =   -4883.32061208 Ry
     Harris-Foulkes estimate   =   -4883.32984652 Ry
     estimated scf accuracy    <       0.05894813 Ry

     total magnetization       =     8.59 Bohr mag/cell
     absolute magnetization    =    10.06 Bohr mag/cell

     iteration # 36     ecut=   100.00 Ry     beta= 0.40
     Davidson diagonalization with overlap
     ethr =  1.89E-05,  avg # of iterations =  4.4

     total cpu time spent up to now is    17325.2 secs

     total energy              =   -4883.27834018 Ry
     Harris-Foulkes estimate   =   -4883.38027953 Ry
     estimated scf accuracy    <       2.34723845 Ry

     total magnetization       =     8.53 Bohr mag/cell
     absolute magnetization    =    10.03 Bohr mag/cell

     iteration # 37     ecut=   100.00 Ry     beta= 0.40
     Davidson diagonalization with overlap
     ethr =  1.89E-05,  avg # of iterations =  2.5

     total cpu time spent up to now is    17801.9 secs

     total energy              =   -4883.32198141 Ry
     Harris-Foulkes estimate   =   -4883.33464718 Ry
     estimated scf accuracy    <       0.14329655 Ry

     total magnetization       =     8.50 Bohr mag/cell
     absolute magnetization    =     9.92 Bohr mag/cell

     iteration # 38     ecut=   100.00 Ry     beta= 0.40
     Davidson diagonalization with overlap
     ethr =  1.89E-05,  avg # of iterations =  2.0

     total cpu time spent up to now is    18245.5 secs

     total energy              =   -4883.30919112 Ry
     Harris-Foulkes estimate   =   -4883.34824485 Ry
     estimated scf accuracy    <       0.85418004 Ry

     total magnetization       =     8.51 Bohr mag/cell
     absolute magnetization    =     9.98 Bohr mag/cell

     iteration # 39     ecut=   100.00 Ry     beta= 0.40
     Davidson diagonalization with overlap
     ethr =  1.89E-05,  avg # of iterations =  2.0

     total cpu time spent up to now is    18680.4 secs

     total energy              =   -4883.32794140 Ry
     Harris-Foulkes estimate   =   -4883.33014820 Ry
     estimated scf accuracy    <       0.03740307 Ry

     total magnetization       =     8.54 Bohr mag/cell
     absolute magnetization    =    10.01 Bohr mag/cell

     iteration # 40     ecut=   100.00 Ry     beta= 0.40
     Davidson diagonalization with overlap
     ethr =  1.20E-05,  avg # of iterations =  1.0

     total cpu time spent up to now is    19065.9 secs

     total energy              =   -4883.32896196 Ry
     Harris-Foulkes estimate   =   -4883.32970555 Ry
     estimated scf accuracy    <       0.01325941 Ry

     total magnetization       =     8.53 Bohr mag/cell
     absolute magnetization    =     9.97 Bohr mag/cell

     iteration # 41     ecut=   100.00 Ry     beta= 0.40
     Davidson diagonalization with overlap
     ethr =  4.25E-06,  avg # of iterations =  1.0

     total cpu time spent up to now is    19459.7 secs

     total energy              =   -4883.32913536 Ry
     Harris-Foulkes estimate   =   -4883.32957381 Ry
     estimated scf accuracy    <       0.01258323 Ry

     total magnetization       =     8.55 Bohr mag/cell
     absolute magnetization    =     9.99 Bohr mag/cell

     iteration # 42     ecut=   100.00 Ry     beta= 0.40
     Davidson diagonalization with overlap
     ethr =  4.03E-06,  avg # of iterations =  1.9

     total cpu time spent up to now is    19883.2 secs

     total energy              =   -4883.32887852 Ry
     Harris-Foulkes estimate   =   -4883.32962610 Ry
     estimated scf accuracy    <       0.01048115 Ry

     total magnetization       =     8.55 Bohr mag/cell
     absolute magnetization    =    10.00 Bohr mag/cell

     iteration # 43     ecut=   100.00 Ry     beta= 0.40
     Davidson diagonalization with overlap
     ethr =  3.36E-06,  avg # of iterations =  2.9

     total cpu time spent up to now is    20344.4 secs

     total energy              =   -4883.32665350 Ry
     Harris-Foulkes estimate   =   -4883.33197747 Ry
     estimated scf accuracy    <       0.12080641 Ry

     total magnetization       =     8.55 Bohr mag/cell
     absolute magnetization    =     9.98 Bohr mag/cell

     iteration # 44     ecut=   100.00 Ry     beta= 0.40
     Davidson diagonalization with overlap
     ethr =  3.36E-06,  avg # of iterations =  2.0

     total cpu time spent up to now is    20773.7 secs

     total energy              =   -4883.32927658 Ry
     Harris-Foulkes estimate   =   -4883.32974864 Ry
     estimated scf accuracy    <       0.01173813 Ry

     total magnetization       =     8.50 Bohr mag/cell
     absolute magnetization    =     9.93 Bohr mag/cell

     iteration # 45     ecut=   100.00 Ry     beta= 0.40
     Davidson diagonalization with overlap
     ethr =  3.36E-06,  avg # of iterations =  1.0

     total cpu time spent up to now is    21159.2 secs

     total energy              =   -4883.32916048 Ry
     Harris-Foulkes estimate   =   -4883.32965708 Ry
     estimated scf accuracy    <       0.00706670 Ry

     total magnetization       =     8.52 Bohr mag/cell
     absolute magnetization    =     9.94 Bohr mag/cell

     iteration # 46     ecut=   100.00 Ry     beta= 0.40
     Davidson diagonalization with overlap
     ethr =  2.26E-06,  avg # of iterations =  2.6

     total cpu time spent up to now is    21612.2 secs

     total energy              =   -4883.32756594 Ry
     Harris-Foulkes estimate   =   -4883.33139196 Ry
     estimated scf accuracy    <       0.07356369 Ry

     total magnetization       =     8.47 Bohr mag/cell
     absolute magnetization    =     9.90 Bohr mag/cell

     iteration # 47     ecut=   100.00 Ry     beta= 0.40
     Davidson diagonalization with overlap
     ethr =  2.26E-06,  avg # of iterations =  1.6

     total cpu time spent up to now is    22013.2 secs

     total energy              =   -4883.32918619 Ry
     Harris-Foulkes estimate   =   -4883.32970991 Ry
     estimated scf accuracy    <       0.00848612 Ry

     total magnetization       =     8.51 Bohr mag/cell
     absolute magnetization    =     9.95 Bohr mag/cell

     iteration # 48     ecut=   100.00 Ry     beta= 0.40
     Davidson diagonalization with overlap
     ethr =  2.26E-06,  avg # of iterations =  2.0

     total cpu time spent up to now is    22439.9 secs

     total energy              =   -4883.32767125 Ry
     Harris-Foulkes estimate   =   -4883.33148670 Ry
     estimated scf accuracy    <       0.07771058 Ry

     total magnetization       =     8.46 Bohr mag/cell
     absolute magnetization    =     9.88 Bohr mag/cell

     iteration # 49     ecut=   100.00 Ry     beta= 0.40
     Davidson diagonalization with overlap
     ethr =  2.26E-06,  avg # of iterations =  1.8

     total cpu time spent up to now is    22862.2 secs

     total energy              =   -4883.32946104 Ry
     Harris-Foulkes estimate   =   -4883.32975496 Ry
     estimated scf accuracy    <       0.00414535 Ry

     total magnetization       =     8.50 Bohr mag/cell
     absolute magnetization    =     9.91 Bohr mag/cell

     iteration # 50     ecut=   100.00 Ry     beta= 0.40
     Davidson diagonalization with overlap
     ethr =  1.33E-06,  avg # of iterations =  1.2

     total cpu time spent up to now is    23367.3 secs

     total energy              =   -4883.32927042 Ry
     Harris-Foulkes estimate   =   -4883.32996118 Ry
     estimated scf accuracy    <       0.00872883 Ry

     total magnetization       =     8.50 Bohr mag/cell
     absolute magnetization    =     9.93 Bohr mag/cell

     iteration # 51     ecut=   100.00 Ry     beta= 0.40
     Davidson diagonalization with overlap
     ethr =  1.33E-06,  avg # of iterations =  1.0

     total cpu time spent up to now is    23843.0 secs

     total energy              =   -4883.32956715 Ry
     Harris-Foulkes estimate   =   -4883.32970823 Ry
     estimated scf accuracy    <       0.00214901 Ry

     total magnetization       =     8.49 Bohr mag/cell
     absolute magnetization    =     9.91 Bohr mag/cell

     iteration # 52     ecut=   100.00 Ry     beta= 0.40
     Davidson diagonalization with overlap
     ethr =  6.89E-07,  avg # of iterations =  1.0

     total cpu time spent up to now is    24330.0 secs

     total energy              =   -4883.32962222 Ry
     Harris-Foulkes estimate   =   -4883.32970900 Ry
     estimated scf accuracy    <       0.00235121 Ry

     total magnetization       =     8.48 Bohr mag/cell
     absolute magnetization    =     9.90 Bohr mag/cell

     iteration # 53     ecut=   100.00 Ry     beta= 0.40
     Davidson diagonalization with overlap
     ethr =  6.89E-07,  avg # of iterations =  1.0

     total cpu time spent up to now is    24824.6 secs

     total energy              =   -4883.32939008 Ry
     Harris-Foulkes estimate   =   -4883.32991353 Ry
     estimated scf accuracy    <       0.00753808 Ry

     total magnetization       =     8.45 Bohr mag/cell
     absolute magnetization    =     9.85 Bohr mag/cell

     iteration # 54     ecut=   100.00 Ry     beta= 0.40
     Davidson diagonalization with overlap
     ethr =  6.89E-07,  avg # of iterations =  2.0

     total cpu time spent up to now is    25372.9 secs

     total energy              =   -4883.32909836 Ry
     Harris-Foulkes estimate   =   -4883.33018617 Ry
     estimated scf accuracy    <       0.01738544 Ry

     total magnetization       =     8.51 Bohr mag/cell
     absolute magnetization    =     9.92 Bohr mag/cell

     iteration # 55     ecut=   100.00 Ry     beta= 0.40
     Davidson diagonalization with overlap
     ethr =  6.89E-07,  avg # of iterations =  2.0

     total cpu time spent up to now is    25908.8 secs

     total energy              =   -4883.32951932 Ry
     Harris-Foulkes estimate   =   -4883.32982287 Ry
     estimated scf accuracy    <       0.00858126 Ry

     total magnetization       =     8.48 Bohr mag/cell
     absolute magnetization    =     9.89 Bohr mag/cell

     iteration # 56     ecut=   100.00 Ry     beta= 0.40
     Davidson diagonalization with overlap
     ethr =  6.89E-07,  avg # of iterations =  1.2

     total cpu time spent up to now is    26412.3 secs

     total energy              =   -4883.32943730 Ry
     Harris-Foulkes estimate   =   -4883.32992758 Ry
     estimated scf accuracy    <       0.00786206 Ry

     total magnetization       =     8.46 Bohr mag/cell
     absolute magnetization    =     9.87 Bohr mag/cell

     iteration # 57     ecut=   100.00 Ry     beta= 0.40
     Davidson diagonalization with overlap
     ethr =  6.89E-07,  avg # of iterations =  1.0

     total cpu time spent up to now is    26908.5 secs

     total energy              =   -4883.32954115 Ry
     Harris-Foulkes estimate   =   -4883.32975092 Ry
     estimated scf accuracy    <       0.00206093 Ry

     total magnetization       =     8.47 Bohr mag/cell
     absolute magnetization    =     9.88 Bohr mag/cell

     iteration # 58     ecut=   100.00 Ry     beta= 0.40
     Davidson diagonalization with overlap
     ethr =  6.61E-07,  avg # of iterations =  2.0

     total cpu time spent up to now is    27441.8 secs

     total energy              =   -4883.32906124 Ry
     Harris-Foulkes estimate   =   -4883.33028795 Ry
     estimated scf accuracy    <       0.02589163 Ry

     total magnetization       =     8.46 Bohr mag/cell
     absolute magnetization    =     9.87 Bohr mag/cell

     iteration # 59     ecut=   100.00 Ry     beta= 0.40
     Davidson diagonalization with overlap
     ethr =  6.61E-07,  avg # of iterations =  1.8

     total cpu time spent up to now is    27969.4 secs

     total energy              =   -4883.32967565 Ry
     Harris-Foulkes estimate   =   -4883.32971202 Ry
     estimated scf accuracy    <       0.00118666 Ry

     total magnetization       =     8.47 Bohr mag/cell
     absolute magnetization    =     9.88 Bohr mag/cell

     iteration # 60     ecut=   100.00 Ry     beta= 0.40
     Davidson diagonalization with overlap
     ethr =  3.80E-07,  avg # of iterations =  1.0

     total cpu time spent up to now is    28454.0 secs

     total energy              =   -4883.32961054 Ry
     Harris-Foulkes estimate   =   -4883.32980221 Ry
     estimated scf accuracy    <       0.00285572 Ry

     total magnetization       =     8.47 Bohr mag/cell
     absolute magnetization    =     9.87 Bohr mag/cell

     iteration # 61     ecut=   100.00 Ry     beta= 0.40
     Davidson diagonalization with overlap
     ethr =  3.80E-07,  avg # of iterations =  1.0

     total cpu time spent up to now is    28930.0 secs

     total energy              =   -4883.32970110 Ry
     Harris-Foulkes estimate   =   -4883.32971638 Ry
     estimated scf accuracy    <       0.00041282 Ry

     total magnetization       =     8.46 Bohr mag/cell
     absolute magnetization    =     9.86 Bohr mag/cell

     iteration # 62     ecut=   100.00 Ry     beta= 0.40
     Davidson diagonalization with overlap
     ethr =  1.32E-07,  avg # of iterations =  1.0

     total cpu time spent up to now is    29410.8 secs

     total energy              =   -4883.32970412 Ry
     Harris-Foulkes estimate   =   -4883.32971428 Ry
     estimated scf accuracy    <       0.00021190 Ry

     total magnetization       =     8.46 Bohr mag/cell
     absolute magnetization    =     9.86 Bohr mag/cell

     iteration # 63     ecut=   100.00 Ry     beta= 0.40
     Davidson diagonalization with overlap
     ethr =  6.79E-08,  avg # of iterations =  1.0

     total cpu time spent up to now is    29896.2 secs

     total energy              =   -4883.32971025 Ry
     Harris-Foulkes estimate   =   -4883.32972108 Ry
     estimated scf accuracy    <       0.00042908 Ry

     total magnetization       =     8.46 Bohr mag/cell
     absolute magnetization    =     9.86 Bohr mag/cell

     iteration # 64     ecut=   100.00 Ry     beta= 0.40
     Davidson diagonalization with overlap
     ethr =  6.79E-08,  avg # of iterations =  1.0

     total cpu time spent up to now is    30389.1 secs

     total energy              =   -4883.32968498 Ry
     Harris-Foulkes estimate   =   -4883.32974186 Ry
     estimated scf accuracy    <       0.00048300 Ry

     total magnetization       =     8.46 Bohr mag/cell
     absolute magnetization    =     9.85 Bohr mag/cell

     iteration # 65     ecut=   100.00 Ry     beta= 0.40
     Davidson diagonalization with overlap
     ethr =  6.79E-08,  avg # of iterations =  2.1

     total cpu time spent up to now is    31002.5 secs

     total energy              =   -4883.32956982 Ry
     Harris-Foulkes estimate   =   -4883.32986599 Ry
     estimated scf accuracy    <       0.00668926 Ry

     total magnetization       =     8.45 Bohr mag/cell
     absolute magnetization    =     9.85 Bohr mag/cell

     iteration # 66     ecut=   100.00 Ry     beta= 0.40
     Davidson diagonalization with overlap
     ethr =  6.79E-08,  avg # of iterations =  2.1

     total cpu time spent up to now is    31569.9 secs

     total energy              =   -4883.32971421 Ry
     Harris-Foulkes estimate   =   -4883.32972791 Ry
     estimated scf accuracy    <       0.00027234 Ry

     total magnetization       =     8.45 Bohr mag/cell
     absolute magnetization    =     9.84 Bohr mag/cell

     iteration # 67     ecut=   100.00 Ry     beta= 0.40
     Davidson diagonalization with overlap
     ethr =  6.79E-08,  avg # of iterations =  1.0

     total cpu time spent up to now is    32057.2 secs

     total energy              =   -4883.32970774 Ry
     Harris-Foulkes estimate   =   -4883.32973851 Ry
     estimated scf accuracy    <       0.00079843 Ry

     total magnetization       =     8.45 Bohr mag/cell
     absolute magnetization    =     9.85 Bohr mag/cell

     iteration # 68     ecut=   100.00 Ry     beta= 0.40
     Davidson diagonalization with overlap
     ethr =  6.79E-08,  avg # of iterations =  1.0

     total cpu time spent up to now is    32554.7 secs

     total energy              =   -4883.32967583 Ry
     Harris-Foulkes estimate   =   -4883.32974350 Ry
     estimated scf accuracy    <       0.00073397 Ry

     total magnetization       =     8.44 Bohr mag/cell
     absolute magnetization    =     9.84 Bohr mag/cell

     iteration # 69     ecut=   100.00 Ry     beta= 0.40
     Davidson diagonalization with overlap
     ethr =  6.79E-08,  avg # of iterations =  2.1

     total cpu time spent up to now is    33148.9 secs

     total energy              =   -4883.32944970 Ry
     Harris-Foulkes estimate   =   -4883.32997818 Ry
     estimated scf accuracy    <       0.01608664 Ry

     total magnetization       =     8.45 Bohr mag/cell
     absolute magnetization    =     9.84 Bohr mag/cell

     iteration # 70     ecut=   100.00 Ry     beta= 0.40
     Davidson diagonalization with overlap
     ethr =  6.79E-08,  avg # of iterations =  2.1

     total cpu time spent up to now is    33723.5 secs

     total energy              =   -4883.32971368 Ry
     Harris-Foulkes estimate   =   -4883.32973399 Ry
     estimated scf accuracy    <       0.00040053 Ry

     total magnetization       =     8.45 Bohr mag/cell
     absolute magnetization    =     9.84 Bohr mag/cell

     iteration # 71     ecut=   100.00 Ry     beta= 0.40
     Davidson diagonalization with overlap
     ethr =  6.79E-08,  avg # of iterations =  1.0

     total cpu time spent up to now is    34217.9 secs

     total energy              =   -4883.32971573 Ry
     Harris-Foulkes estimate   =   -4883.32973117 Ry
     estimated scf accuracy    <       0.00019630 Ry

     total magnetization       =     8.45 Bohr mag/cell
     absolute magnetization    =     9.84 Bohr mag/cell

     iteration # 72     ecut=   100.00 Ry     beta= 0.40
     Davidson diagonalization with overlap
     ethr =  6.29E-08,  avg # of iterations =  1.0

     total cpu time spent up to now is    34710.0 secs

     total energy              =   -4883.32971903 Ry
     Harris-Foulkes estimate   =   -4883.32973082 Ry
     estimated scf accuracy    <       0.00020148 Ry

     total magnetization       =     8.45 Bohr mag/cell
     absolute magnetization    =     9.84 Bohr mag/cell

     iteration # 73     ecut=   100.00 Ry     beta= 0.40
     Davidson diagonalization with overlap
     ethr =  6.29E-08,  avg # of iterations =  1.0

     total cpu time spent up to now is    35200.3 secs

     total energy              =   -4883.32972193 Ry
     Harris-Foulkes estimate   =   -4883.32972752 Ry
     estimated scf accuracy    <       0.00010540 Ry

     total magnetization       =     8.45 Bohr mag/cell
     absolute magnetization    =     9.84 Bohr mag/cell

     iteration # 74     ecut=   100.00 Ry     beta= 0.40
     Davidson diagonalization with overlap
     ethr =  3.38E-08,  avg # of iterations =  1.1

     total cpu time spent up to now is    35700.2 secs

     total energy              =   -4883.32971642 Ry
     Harris-Foulkes estimate   =   -4883.32973354 Ry
     estimated scf accuracy    <       0.00023826 Ry

     total magnetization       =     8.45 Bohr mag/cell
     absolute magnetization    =     9.84 Bohr mag/cell

     iteration # 75     ecut=   100.00 Ry     beta= 0.40
     Davidson diagonalization with overlap
     ethr =  3.38E-08,  avg # of iterations =  1.9

     total cpu time spent up to now is    36251.5 secs

     total energy              =   -4883.32970228 Ry
     Harris-Foulkes estimate   =   -4883.32974814 Ry
     estimated scf accuracy    <       0.00087452 Ry

     total magnetization       =     8.45 Bohr mag/cell
     absolute magnetization    =     9.83 Bohr mag/cell

     iteration # 76     ecut=   100.00 Ry     beta= 0.40
     Davidson diagonalization with overlap
     ethr =  3.38E-08,  avg # of iterations =  1.2

     total cpu time spent up to now is    36751.2 secs

     total energy              =   -4883.32972290 Ry
     Harris-Foulkes estimate   =   -4883.32973023 Ry
     estimated scf accuracy    <       0.00019534 Ry

     total magnetization       =     8.45 Bohr mag/cell
     absolute magnetization    =     9.83 Bohr mag/cell

     iteration # 77     ecut=   100.00 Ry     beta= 0.40
     Davidson diagonalization with overlap
     ethr =  3.38E-08,  avg # of iterations =  1.0

     total cpu time spent up to now is    37249.7 secs

     total energy              =   -4883.32972570 Ry
     Harris-Foulkes estimate   =   -4883.32972702 Ry
     estimated scf accuracy    <       0.00004051 Ry

     total magnetization       =     8.45 Bohr mag/cell
     absolute magnetization    =     9.83 Bohr mag/cell

     iteration # 78     ecut=   100.00 Ry     beta= 0.40
     Davidson diagonalization with overlap
     ethr =  1.30E-08,  avg # of iterations =  1.0

     total cpu time spent up to now is    37734.6 secs

     total energy              =   -4883.32971863 Ry
     Harris-Foulkes estimate   =   -4883.32972968 Ry
     estimated scf accuracy    <       0.00013898 Ry

     total magnetization       =     8.44 Bohr mag/cell
     absolute magnetization    =     9.83 Bohr mag/cell

     iteration # 79     ecut=   100.00 Ry     beta= 0.40
     Davidson diagonalization with overlap
     ethr =  1.30E-08,  avg # of iterations =  2.1

     total cpu time spent up to now is    38353.8 secs

     total energy              =   -4883.32966962 Ry
     Harris-Foulkes estimate   =   -4883.32977968 Ry
     estimated scf accuracy    <       0.00311576 Ry

     total magnetization       =     8.45 Bohr mag/cell
     absolute magnetization    =     9.83 Bohr mag/cell

     iteration # 80     ecut=   100.00 Ry     beta= 0.40
     Davidson diagonalization with overlap
     ethr =  1.30E-08,  avg # of iterations =  2.4

     total cpu time spent up to now is    38986.0 secs

     total energy              =   -4883.32971988 Ry
     Harris-Foulkes estimate   =   -4883.32973214 Ry
     estimated scf accuracy    <       0.00015810 Ry

     total magnetization       =     8.44 Bohr mag/cell
     absolute magnetization    =     9.83 Bohr mag/cell

     iteration # 81     ecut=   100.00 Ry     beta= 0.40
     Davidson diagonalization with overlap
     ethr =  1.30E-08,  avg # of iterations =  2.0

     total cpu time spent up to now is    39532.8 secs

     total energy              =   -4883.32972287 Ry
     Harris-Foulkes estimate   =   -4883.32973080 Ry
     estimated scf accuracy    <       0.00011541 Ry

     total magnetization       =     8.45 Bohr mag/cell
     absolute magnetization    =     9.83 Bohr mag/cell

     iteration # 82     ecut=   100.00 Ry     beta= 0.40
     Davidson diagonalization with overlap
     ethr =  1.30E-08,  avg # of iterations =  1.0

     total cpu time spent up to now is    40028.6 secs

     total energy              =   -4883.32972618 Ry
     Harris-Foulkes estimate   =   -4883.32972836 Ry
     estimated scf accuracy    <       0.00005264 Ry

     total magnetization       =     8.44 Bohr mag/cell
     absolute magnetization    =     9.83 Bohr mag/cell

     iteration # 83     ecut=   100.00 Ry     beta= 0.40
     Davidson diagonalization with overlap
     ethr =  1.30E-08,  avg # of iterations =  1.0

     total cpu time spent up to now is    40511.8 secs

     total energy              =   -4883.32972620 Ry
     Harris-Foulkes estimate   =   -4883.32972847 Ry
     estimated scf accuracy    <       0.00006322 Ry

     total magnetization       =     8.44 Bohr mag/cell
     absolute magnetization    =     9.83 Bohr mag/cell

     iteration # 84     ecut=   100.00 Ry     beta= 0.40
     Davidson diagonalization with overlap
     ethr =  1.30E-08,  avg # of iterations =  1.0

     total cpu time spent up to now is    41007.0 secs

     total energy              =   -4883.32972663 Ry
     Harris-Foulkes estimate   =   -4883.32972774 Ry
     estimated scf accuracy    <       0.00002076 Ry

     total magnetization       =     8.44 Bohr mag/cell
     absolute magnetization    =     9.83 Bohr mag/cell

     iteration # 85     ecut=   100.00 Ry     beta= 0.40
     Davidson diagonalization with overlap
     ethr =  6.65E-09,  avg # of iterations =  1.1

     total cpu time spent up to now is    41509.9 secs

     total energy              =   -4883.32972398 Ry
     Harris-Foulkes estimate   =   -4883.32973091 Ry
     estimated scf accuracy    <       0.00012680 Ry

     total magnetization       =     8.44 Bohr mag/cell
     absolute magnetization    =     9.83 Bohr mag/cell

     iteration # 86     ecut=   100.00 Ry     beta= 0.40
     Davidson diagonalization with overlap
     ethr =  6.65E-09,  avg # of iterations =  1.1

     total cpu time spent up to now is    42024.6 secs

     total energy              =   -4883.32972667 Ry
     Harris-Foulkes estimate   =   -4883.32972824 Ry
     estimated scf accuracy    <       0.00002723 Ry

     total magnetization       =     8.44 Bohr mag/cell
     absolute magnetization    =     9.83 Bohr mag/cell

     iteration # 87     ecut=   100.00 Ry     beta= 0.40
     Davidson diagonalization with overlap
     ethr =  6.65E-09,  avg # of iterations =  1.0

     total cpu time spent up to now is    42514.2 secs

     total energy              =   -4883.32972730 Ry
     Harris-Foulkes estimate   =   -4883.32972800 Ry
     estimated scf accuracy    <       0.00002160 Ry

     total magnetization       =     8.44 Bohr mag/cell
     absolute magnetization    =     9.83 Bohr mag/cell

     iteration # 88     ecut=   100.00 Ry     beta= 0.40
     Davidson diagonalization with overlap
     ethr =  6.65E-09,  avg # of iterations =  1.0

     total cpu time spent up to now is    43011.2 secs

     total energy              =   -4883.32972540 Ry
     Harris-Foulkes estimate   =   -4883.32972810 Ry
     estimated scf accuracy    <       0.00002191 Ry

     total magnetization       =     8.44 Bohr mag/cell
     absolute magnetization    =     9.83 Bohr mag/cell

     iteration # 89     ecut=   100.00 Ry     beta= 0.40
     Davidson diagonalization with overlap
     ethr =  6.65E-09,  avg # of iterations =  2.1

     total cpu time spent up to now is    43598.1 secs

     total energy              =   -4883.32971037 Ry
     Harris-Foulkes estimate   =   -4883.32974349 Ry
     estimated scf accuracy    <       0.00086776 Ry

     total magnetization       =     8.44 Bohr mag/cell
     absolute magnetization    =     9.83 Bohr mag/cell

     iteration # 90     ecut=   100.00 Ry     beta= 0.40
     Davidson diagonalization with overlap
     ethr =  6.65E-09,  avg # of iterations =  2.1

     total cpu time spent up to now is    44207.9 secs

     total energy              =   -4883.32972514 Ry
     Harris-Foulkes estimate   =   -4883.32973011 Ry
     estimated scf accuracy    <       0.00006129 Ry

     total magnetization       =     8.44 Bohr mag/cell
     absolute magnetization    =     9.82 Bohr mag/cell

     iteration # 91     ecut=   100.00 Ry     beta= 0.40
     Davidson diagonalization with overlap
     ethr =  6.65E-09,  avg # of iterations =  1.6

     total cpu time spent up to now is    44731.9 secs

     total energy              =   -4883.32972694 Ry
     Harris-Foulkes estimate   =   -4883.32972861 Ry
     estimated scf accuracy    <       0.00004168 Ry

     total magnetization       =     8.44 Bohr mag/cell
     absolute magnetization    =     9.82 Bohr mag/cell

     iteration # 92     ecut=   100.00 Ry     beta= 0.40
     Davidson diagonalization with overlap
     ethr =  6.65E-09,  avg # of iterations =  1.0

     total cpu time spent up to now is    45227.2 secs

     total energy              =   -4883.32972741 Ry
     Harris-Foulkes estimate   =   -4883.32972819 Ry
     estimated scf accuracy    <       0.00001172 Ry

     total magnetization       =     8.44 Bohr mag/cell
     absolute magnetization    =     9.82 Bohr mag/cell

     iteration # 93     ecut=   100.00 Ry     beta= 0.40
     Davidson diagonalization with overlap
     ethr =  3.76E-09,  avg # of iterations =  1.0

     total cpu time spent up to now is    45726.8 secs

     total energy              =   -4883.32972783 Ry
     Harris-Foulkes estimate   =   -4883.32972796 Ry
     estimated scf accuracy    <       0.00000606 Ry

     total magnetization       =     8.44 Bohr mag/cell
     absolute magnetization    =     9.82 Bohr mag/cell

     iteration # 94     ecut=   100.00 Ry     beta= 0.40
     Davidson diagonalization with overlap
     ethr =  1.94E-09,  avg # of iterations =  1.0

     total cpu time spent up to now is    46226.5 secs

     total energy              =   -4883.32972786 Ry
     Harris-Foulkes estimate   =   -4883.32972804 Ry
     estimated scf accuracy    <       0.00000838 Ry

     total magnetization       =     8.44 Bohr mag/cell
     absolute magnetization    =     9.82 Bohr mag/cell

     iteration # 95     ecut=   100.00 Ry     beta= 0.40
     Davidson diagonalization with overlap
     ethr =  1.94E-09,  avg # of iterations =  1.0

     total cpu time spent up to now is    46724.8 secs

     total energy              =   -4883.32972781 Ry
     Harris-Foulkes estimate   =   -4883.32972816 Ry
     estimated scf accuracy    <       0.00000496 Ry

     total magnetization       =     8.44 Bohr mag/cell
     absolute magnetization    =     9.82 Bohr mag/cell

     iteration # 96     ecut=   100.00 Ry     beta= 0.40
     Davidson diagonalization with overlap
     ethr =  1.59E-09,  avg # of iterations =  1.0

     total cpu time spent up to now is    47214.2 secs

     total energy              =   -4883.32972768 Ry
     Harris-Foulkes estimate   =   -4883.32972814 Ry
     estimated scf accuracy    <       0.00000594 Ry

     total magnetization       =     8.44 Bohr mag/cell
     absolute magnetization    =     9.82 Bohr mag/cell

     iteration # 97     ecut=   100.00 Ry     beta= 0.40
     Davidson diagonalization with overlap
     ethr =  1.59E-09,  avg # of iterations =  1.0

     total cpu time spent up to now is    47698.4 secs

     total energy              =   -4883.32972722 Ry
     Harris-Foulkes estimate   =   -4883.32972865 Ry
     estimated scf accuracy    <       0.00002711 Ry

     total magnetization       =     8.44 Bohr mag/cell
     absolute magnetization    =     9.82 Bohr mag/cell

     iteration # 98     ecut=   100.00 Ry     beta= 0.40
     Davidson diagonalization with overlap
     ethr =  1.59E-09,  avg # of iterations =  1.1

     total cpu time spent up to now is    48192.7 secs

     total energy              =   -4883.32972738 Ry
     Harris-Foulkes estimate   =   -4883.32972823 Ry
     estimated scf accuracy    <       0.00000810 Ry

     total magnetization       =     8.44 Bohr mag/cell
     absolute magnetization    =     9.82 Bohr mag/cell

     iteration # 99     ecut=   100.00 Ry     beta= 0.40
     Davidson diagonalization with overlap
     ethr =  1.59E-09,  avg # of iterations =  2.1

     total cpu time spent up to now is    48763.5 secs

     total energy              =   -4883.32972413 Ry
     Harris-Foulkes estimate   =   -4883.32973173 Ry
     estimated scf accuracy    <       0.00018691 Ry

     total magnetization       =     8.44 Bohr mag/cell
     absolute magnetization    =     9.82 Bohr mag/cell

     iteration #100     ecut=   100.00 Ry     beta= 0.40
     Davidson diagonalization with overlap
     ethr =  1.59E-09,  avg # of iterations =  2.1
 
     Magnetic moment per site:
     atom:    1    charge:    7.2630    magn:   -0.0224    constr:    0.0000
     atom:    2    charge:    7.3060    magn:   -0.0157    constr:    0.0000
     atom:    3    charge:    5.3748    magn:    0.0509    constr:    0.0000
     atom:    4    charge:    5.3740    magn:    0.0594    constr:    0.0000
     atom:    5    charge:    5.4058    magn:    0.0634    constr:    0.0000
     atom:    6    charge:    5.3577    magn:    0.0527    constr:    0.0000
     atom:    7    charge:    5.4041    magn:    0.0525    constr:    0.0000
     atom:    8    charge:    5.4246    magn:    0.0435    constr:    0.0000
     atom:    9    charge:    5.4477    magn:    0.0520    constr:    0.0000
     atom:   10    charge:    5.3945    magn:    0.0505    constr:    0.0000
     atom:   11    charge:   15.4948    magn:    0.8268    constr:    0.0000
     atom:   12    charge:   15.4861    magn:    0.7886    constr:    0.0000
     atom:   13    charge:   15.5072    magn:    0.6639    constr:    0.0000
     atom:   14    charge:   15.5831    magn:    0.4485    constr:    0.0000
     atom:   15    charge:   15.5044    magn:    0.8784    constr:    0.0000
     atom:   16    charge:   15.5512    magn:    0.7013    constr:    0.0000
     atom:   17    charge:   15.5192    magn:    0.8236    constr:    0.0000
     atom:   18    charge:   15.6561    magn:    0.3897    constr:    0.0000
     atom:   19    charge:   15.5788    magn:    0.6802    constr:    0.0000
     atom:   20    charge:   15.5548    magn:    0.6240    constr:    0.0000
     atom:   21    charge:   15.4881    magn:    0.7896    constr:    0.0000
     atom:   22    charge:   15.4751    magn:    0.8240    constr:    0.0000
     atom:   23    charge:    8.8273    magn:   -0.0755    constr:    0.0000
     atom:   24    charge:    8.7835    magn:   -0.1084    constr:    0.0000

     total cpu time spent up to now is    49353.2 secs

     total energy              =   -4883.32972766 Ry
     Harris-Foulkes estimate   =   -4883.32972848 Ry
     estimated scf accuracy    <       0.00001545 Ry

     total magnetization       =     8.44 Bohr mag/cell
     absolute magnetization    =     9.82 Bohr mag/cell

     iteration #101     ecut=   100.00 Ry     beta= 0.40
     Davidson diagonalization with overlap
     ethr =  1.59E-09,  avg # of iterations =  1.0

     total cpu time spent up to now is    49843.6 secs

     total energy              =   -4883.32972792 Ry
     Harris-Foulkes estimate   =   -4883.32972827 Ry
     estimated scf accuracy    <       0.00000669 Ry

     total magnetization       =     8.44 Bohr mag/cell
     absolute magnetization    =     9.82 Bohr mag/cell

     iteration #102     ecut=   100.00 Ry     beta= 0.40
     Davidson diagonalization with overlap
     ethr =  1.59E-09,  avg # of iterations =  1.0

     total cpu time spent up to now is    50342.9 secs

     total energy              =   -4883.32972799 Ry
     Harris-Foulkes estimate   =   -4883.32972816 Ry
     estimated scf accuracy    <       0.00000353 Ry

     total magnetization       =     8.44 Bohr mag/cell
     absolute magnetization    =     9.82 Bohr mag/cell

     iteration #103     ecut=   100.00 Ry     beta= 0.40
     Davidson diagonalization with overlap
     ethr =  1.13E-09,  avg # of iterations =  1.0

     total cpu time spent up to now is    50822.3 secs

     total energy              =   -4883.32972790 Ry
     Harris-Foulkes estimate   =   -4883.32972823 Ry
     estimated scf accuracy    <       0.00000672 Ry

     total magnetization       =     8.44 Bohr mag/cell
     absolute magnetization    =     9.82 Bohr mag/cell

     iteration #104     ecut=   100.00 Ry     beta= 0.40
     Davidson diagonalization with overlap
     ethr =  1.13E-09,  avg # of iterations =  1.0
 
     Magnetic moment per site:
     atom:    1    charge:    7.2630    magn:   -0.0223    constr:    0.0000
     atom:    2    charge:    7.3060    magn:   -0.0157    constr:    0.0000
     atom:    3    charge:    5.3748    magn:    0.0509    constr:    0.0000
     atom:    4    charge:    5.3740    magn:    0.0594    constr:    0.0000
     atom:    5    charge:    5.4058    magn:    0.0634    constr:    0.0000
     atom:    6    charge:    5.3577    magn:    0.0527    constr:    0.0000
     atom:    7    charge:    5.4041    magn:    0.0524    constr:    0.0000
     atom:    8    charge:    5.4246    magn:    0.0435    constr:    0.0000
     atom:    9    charge:    5.4477    magn:    0.0520    constr:    0.0000
     atom:   10    charge:    5.3945    magn:    0.0505    constr:    0.0000
     atom:   11    charge:   15.4948    magn:    0.8265    constr:    0.0000
     atom:   12    charge:   15.4860    magn:    0.7884    constr:    0.0000
     atom:   13    charge:   15.5075    magn:    0.6631    constr:    0.0000
     atom:   14    charge:   15.5831    magn:    0.4481    constr:    0.0000
     atom:   15    charge:   15.5044    magn:    0.8784    constr:    0.0000
     atom:   16    charge:   15.5516    magn:    0.7007    constr:    0.0000
     atom:   17    charge:   15.5193    magn:    0.8233    constr:    0.0000
     atom:   18    charge:   15.6561    magn:    0.3897    constr:    0.0000
     atom:   19    charge:   15.5787    magn:    0.6800    constr:    0.0000
     atom:   20    charge:   15.5547    magn:    0.6235    constr:    0.0000
     atom:   21    charge:   15.4878    magn:    0.7900    constr:    0.0000
     atom:   22    charge:   15.4752    magn:    0.8236    constr:    0.0000
     atom:   23    charge:    8.8273    magn:   -0.0754    constr:    0.0000
     atom:   24    charge:    8.7835    magn:   -0.1082    constr:    0.0000

     total cpu time spent up to now is    51303.9 secs

     End of self-consistent calculation

 ------ SPIN UP ------------


          k = 0.0000 0.0000 0.0000 ( 30953 PWs)   bands (ev):

   -89.6325 -89.5619 -89.5452 -89.5190 -89.5102 -89.4544 -89.4107 -89.3922
   -89.3862 -89.3700 -89.3321 -89.3147 -50.2872 -50.2537 -50.2151 -50.1935
   -50.1841 -50.1735 -50.1428 -50.1291 -50.1230 -50.1109 -50.1052 -50.0833
   -50.0647 -50.0612 -50.0523 -50.0286 -50.0065 -49.9977 -49.9943 -49.9617
   -49.9616 -49.9497 -49.9411 -49.9389 -49.9249 -49.9230 -49.8915 -49.8722
   -49.8492 -49.8217 -49.8105 -49.7965 -49.7737 -49.7696 -49.7507 -49.6556
   -43.6967 -43.6097 -34.6954 -34.6723 -20.0895 -20.0167 -19.9538 -19.9375
   -19.9317 -19.8545 -13.1440 -13.0298 -12.9438 -12.9296 -12.7057 -12.6257
    -4.7570  -4.2592  -4.1129  -3.9442  -3.3911  -3.3859  -3.2945  -2.8706
     6.1158   7.1682   7.2903   7.6647   8.0517   8.3073   8.5230   8.5761
     8.5941   8.9106   8.9836   9.0474   9.3127   9.3779   9.4533   9.5049
     9.5510   9.6328   9.6545   9.7781   9.8904   9.9414   9.9816  10.1100
    10.1564  10.2163  10.2485  10.2923  10.3591  10.3657  10.4194  10.4393
    10.4822  10.6120  10.6576  10.7041  10.7294  10.7784  10.8119  10.8535
    10.9748  10.9839  11.0169  11.0941  11.2508  11.4759  11.5146  11.6200
    11.6584  11.7285  11.8134  11.8217  11.8741  11.9727  12.0105  12.0245
    12.1472  12.1684  12.2144  12.3223  12.3483  12.3805  12.4532  12.4681
    12.5246  12.5411  12.5914  12.6954  12.7230  12.7713  12.8360  12.8501
    12.8760  12.9314  12.9538  12.9805  13.0117  13.0388  13.0628  13.1028
    13.1678  13.2178  13.3282  13.3695  13.4197  13.4904  13.5465  14.2493
    14.7716  14.8744  14.8964  15.0716  15.2315  15.2505  15.6341  15.7387
    16.1070  16.2982  16.4670  16.6786  16.6937  16.7873  16.9234  17.2912
    17.5422  17.6034  17.7157  18.3548  18.6867  18.9211  19.1377  19.2968
    19.6499  20.6823  20.7673

     occupation numbers 
     1.0000   1.0000   1.0000   1.0000   1.0000   1.0000   1.0000   1.0000
     1.0000   1.0000   1.0000   1.0000   1.0000   1.0000   1.0000   1.0000
     1.0000   1.0000   1.0000   1.0000   1.0000   1.0000   1.0000   1.0000
     1.0000   1.0000   1.0000   1.0000   1.0000   1.0000   1.0000   1.0000
     1.0000   1.0000   1.0000   1.0000   1.0000   1.0000   1.0000   1.0000
     1.0000   1.0000   1.0000   1.0000   1.0000   1.0000   1.0000   1.0000
     1.0000   1.0000   1.0000   1.0000   1.0000   1.0000   1.0000   1.0000
     1.0000   1.0000   1.0000   1.0000   1.0000   1.0000   1.0000   1.0000
     1.0000   1.0000   1.0000   1.0000   1.0000   1.0000   1.0000   1.0000
     1.0000   1.0000   1.0000   1.0000   1.0000   1.0000   1.0000   1.0000
     1.0000   1.0000   1.0000   1.0000   1.0000   1.0000   1.0000   1.0000
     1.0000   1.0000   1.0000   1.0000   1.0000   1.0000   1.0000   1.0000
     1.0000   1.0000   1.0000   1.0000   1.0000   1.0000   1.0000   1.0000
     1.0000   1.0000   1.0000   1.0000   1.0000   1.0000   1.0000   1.0000
     1.0000   1.0000   1.0000   1.0000   1.0000   1.0000   1.0000   1.0000
     1.0000   1.0000   1.0000   1.0000   1.0000   1.0000   1.0000   1.0000
     1.0000   1.0000   1.0000   1.0000   1.0000   1.0000   1.0000   1.0000
     1.0000   1.0000   1.0000   1.0000   1.0000   1.0000   1.0000   1.0000
     1.0000   1.0000   1.0000   1.0000   1.0000   1.0000   1.0000   1.0000
     1.0001   1.0004   1.0049   1.0103   1.0222   1.0504   1.0751   0.0006
     0.0000   0.0000   0.0000   0.0000   0.0000   0.0000   0.0000   0.0000
     0.0000   0.0000   0.0000   0.0000   0.0000   0.0000   0.0000   0.0000
     0.0000   0.0000   0.0000   0.0000   0.0000   0.0000   0.0000   0.0000
     0.0000   0.0000   0.0000

          k = 0.0000 0.0000-0.6761 ( 30946 PWs)   bands (ev):

   -89.6325 -89.5619 -89.5452 -89.5190 -89.5102 -89.4544 -89.4107 -89.3922
   -89.3862 -89.3700 -89.3321 -89.3147 -50.2872 -50.2537 -50.2151 -50.1935
   -50.1841 -50.1735 -50.1428 -50.1291 -50.1230 -50.1109 -50.1052 -50.0833
   -50.0647 -50.0612 -50.0523 -50.0286 -50.0065 -49.9977 -49.9943 -49.9617
   -49.9616 -49.9497 -49.9411 -49.9389 -49.9249 -49.9230 -49.8915 -49.8722
   -49.8492 -49.8217 -49.8105 -49.7965 -49.7737 -49.7696 -49.7507 -49.6556
   -43.6967 -43.6097 -34.6954 -34.6723 -20.0895 -20.0167 -19.9539 -19.9375
   -19.9317 -19.8545 -13.1441 -13.0299 -12.9438 -12.9298 -12.7057 -12.6257
    -4.7514  -4.2568  -4.1118  -3.9481  -3.3927  -3.3861  -3.2954  -2.8715
     6.0510   7.3993   7.5407   7.6614   8.0365   8.1062   8.3711   8.5026
     8.5554   8.5943   8.6051   9.0526   9.2036   9.4581   9.5837   9.6034
     9.7134   9.7790   9.8146   9.8762   9.9157   9.9944  10.0237  10.0603
    10.0893  10.1286  10.2172  10.2600  10.3224  10.3565  10.3934  10.4192
    10.4580  10.4778  10.5244  10.5436  10.6838  10.8046  10.8672  10.8979
    11.1107  11.1673  11.2179  11.2807  11.3339  11.4667  11.5914  11.6335
    11.7180  11.7399  11.8342  11.9546  11.9852  12.0271  12.0710  12.0989
    12.1703  12.2040  12.2313  12.2918  12.3171  12.3769  12.4455  12.4917
    12.5370  12.5690  12.6293  12.6464  12.7035  12.7407  12.7691  12.8240
    12.8400  12.8748  12.9109  12.9197  12.9639  12.9861  13.0047  13.0304
    13.0760  13.1715  13.2098  13.4863  13.5465  13.5526  13.6447  13.8462
    14.4802  14.6657  15.0922  15.2048  15.2261  15.3038  15.3489  15.5601
    16.0055  16.3999  16.4873  16.6043  16.6863  16.9944  17.2129  17.5093
    17.6062  17.7904  17.8274  18.4960  18.6282  19.0023  19.1520  19.2897
    19.8389  20.1762  20.6142

     occupation numbers 
     1.0000   1.0000   1.0000   1.0000   1.0000   1.0000   1.0000   1.0000
     1.0000   1.0000   1.0000   1.0000   1.0000   1.0000   1.0000   1.0000
     1.0000   1.0000   1.0000   1.0000   1.0000   1.0000   1.0000   1.0000
     1.0000   1.0000   1.0000   1.0000   1.0000   1.0000   1.0000   1.0000
     1.0000   1.0000   1.0000   1.0000   1.0000   1.0000   1.0000   1.0000
     1.0000   1.0000   1.0000   1.0000   1.0000   1.0000   1.0000   1.0000
     1.0000   1.0000   1.0000   1.0000   1.0000   1.0000   1.0000   1.0000
     1.0000   1.0000   1.0000   1.0000   1.0000   1.0000   1.0000   1.0000
     1.0000   1.0000   1.0000   1.0000   1.0000   1.0000   1.0000   1.0000
     1.0000   1.0000   1.0000   1.0000   1.0000   1.0000   1.0000   1.0000
     1.0000   1.0000   1.0000   1.0000   1.0000   1.0000   1.0000   1.0000
     1.0000   1.0000   1.0000   1.0000   1.0000   1.0000   1.0000   1.0000
     1.0000   1.0000   1.0000   1.0000   1.0000   1.0000   1.0000   1.0000
     1.0000   1.0000   1.0000   1.0000   1.0000   1.0000   1.0000   1.0000
     1.0000   1.0000   1.0000   1.0000   1.0000   1.0000   1.0000   1.0000
     1.0000   1.0000   1.0000   1.0000   1.0000   1.0000   1.0000   1.0000
     1.0000   1.0000   1.0000   1.0000   1.0000   1.0000   1.0000   1.0000
     1.0000   1.0000   1.0000   1.0000   1.0000   1.0000   1.0000   1.0000
     1.0000   1.0000   1.0000   1.0000   1.0000   1.0000   1.0000   1.0000
     1.0000   1.0001   1.0004   1.0485   1.0751   1.0772   1.0584   0.4861
     0.0000   0.0000   0.0000   0.0000   0.0000   0.0000   0.0000   0.0000
     0.0000   0.0000   0.0000   0.0000   0.0000   0.0000   0.0000   0.0000
     0.0000   0.0000   0.0000   0.0000   0.0000   0.0000   0.0000   0.0000
     0.0000   0.0000   0.0000

          k = 0.0000-1.4142 0.0000 ( 30950 PWs)   bands (ev):

   -89.6306 -89.5588 -89.5475 -89.5183 -89.5107 -89.4528 -89.4108 -89.3945
   -89.3833 -89.3730 -89.3328 -89.3155 -50.2912 -50.2497 -50.2280 -50.2131
   -50.2095 -50.1743 -50.1493 -50.1297 -50.1112 -50.1000 -50.0859 -50.0809
   -50.0743 -50.0644 -50.0509 -50.0203 -50.0175 -50.0047 -49.9846 -49.9684
   -49.9567 -49.9518 -49.9408 -49.9344 -49.9234 -49.9132 -49.8857 -49.8759
   -49.8532 -49.8171 -49.8075 -49.7952 -49.7888 -49.7676 -49.7370 -49.6533
   -43.6931 -43.6062 -34.6771 -34.6545 -20.0740 -20.0163 -20.0013 -19.9491
   -19.9345 -19.9248 -13.1835 -13.1199 -13.0898 -12.9377 -12.8718 -12.8229
    -4.0226  -4.0142  -3.7269  -3.6440  -3.6283  -3.5013  -3.3169  -3.1126
     7.4410   7.8238   7.8769   8.2803   8.4141   8.5375   8.6066   8.6691
     8.7476   8.9290   9.0683   9.0953   9.2726   9.3507   9.5645   9.6181
     9.6495   9.7957   9.8070   9.8797  10.0727  10.1164  10.1763  10.1888
    10.2433  10.2535  10.2667  10.3695  10.4091  10.5738  10.6176  10.6860
    10.7908  10.8393  10.8896  10.9702  10.9892  11.0038  11.1260  11.1857
    11.1997  11.2466  11.2810  11.3384  11.4452  11.4953  11.5086  11.5861
    11.5877  11.6699  11.6980  11.7379  11.8046  11.8414  11.9126  11.9452
    11.9706  12.0102  12.0377  12.0956  12.1084  12.1502  12.2316  12.2917
    12.3255  12.4140  12.4256  12.4809  12.5372  12.5987  12.6806  12.7200
    12.7906  12.8412  12.8519  12.8549  12.9237  12.9855  13.0419  13.0449
    13.2497  13.2589  13.2699  13.2973  13.3154  13.3358  13.6159  13.6391
    13.7394  13.8165  14.8319  15.1001  15.1278  15.1926  15.5512  15.6415
    15.9222  16.2226  16.2392  16.3074  16.4893  16.5544  16.6908  16.8259
    16.9936  17.3329  17.4391  17.4579  17.5633  17.8652  18.2823  18.5723
    19.2093  19.3293  19.5551

     occupation numbers 
     1.0000   1.0000   1.0000   1.0000   1.0000   1.0000   1.0000   1.0000
     1.0000   1.0000   1.0000   1.0000   1.0000   1.0000   1.0000   1.0000
     1.0000   1.0000   1.0000   1.0000   1.0000   1.0000   1.0000   1.0000
     1.0000   1.0000   1.0000   1.0000   1.0000   1.0000   1.0000   1.0000
     1.0000   1.0000   1.0000   1.0000   1.0000   1.0000   1.0000   1.0000
     1.0000   1.0000   1.0000   1.0000   1.0000   1.0000   1.0000   1.0000
     1.0000   1.0000   1.0000   1.0000   1.0000   1.0000   1.0000   1.0000
     1.0000   1.0000   1.0000   1.0000   1.0000   1.0000   1.0000   1.0000
     1.0000   1.0000   1.0000   1.0000   1.0000   1.0000   1.0000   1.0000
     1.0000   1.0000   1.0000   1.0000   1.0000   1.0000   1.0000   1.0000
     1.0000   1.0000   1.0000   1.0000   1.0000   1.0000   1.0000   1.0000
     1.0000   1.0000   1.0000   1.0000   1.0000   1.0000   1.0000   1.0000
     1.0000   1.0000   1.0000   1.0000   1.0000   1.0000   1.0000   1.0000
     1.0000   1.0000   1.0000   1.0000   1.0000   1.0000   1.0000   1.0000
     1.0000   1.0000   1.0000   1.0000   1.0000   1.0000   1.0000   1.0000
     1.0000   1.0000   1.0000   1.0000   1.0000   1.0000   1.0000   1.0000
     1.0000   1.0000   1.0000   1.0000   1.0000   1.0000   1.0000   1.0000
     1.0000   1.0000   1.0000   1.0000   1.0000   1.0000   1.0000   1.0000
     1.0000   1.0000   1.0000   1.0000   1.0000   1.0000   1.0000   1.0000
     1.0009   1.0012   1.0015   1.0027   1.0038   1.0057   1.0778   1.0633
     0.8683   0.5970   0.0000   0.0000   0.0000   0.0000   0.0000   0.0000
     0.0000   0.0000   0.0000   0.0000   0.0000   0.0000   0.0000   0.0000
     0.0000   0.0000   0.0000   0.0000   0.0000   0.0000   0.0000   0.0000
     0.0000   0.0000   0.0000

          k = 0.0000-1.4142-0.6761 ( 30864 PWs)   bands (ev):

   -89.6306 -89.5588 -89.5475 -89.5183 -89.5107 -89.4528 -89.4108 -89.3945
   -89.3833 -89.3730 -89.3328 -89.3155 -50.2912 -50.2497 -50.2280 -50.2131
   -50.2095 -50.1743 -50.1493 -50.1297 -50.1112 -50.1000 -50.0859 -50.0809
   -50.0743 -50.0644 -50.0509 -50.0203 -50.0175 -50.0047 -49.9846 -49.9684
   -49.9567 -49.9518 -49.9408 -49.9344 -49.9234 -49.9132 -49.8857 -49.8759
   -49.8532 -49.8171 -49.8075 -49.7952 -49.7888 -49.7676 -49.7370 -49.6533
   -43.6931 -43.6062 -34.6771 -34.6545 -20.0740 -20.0163 -20.0013 -19.9491
   -19.9345 -19.9248 -13.1835 -13.1200 -13.0898 -12.9377 -12.8718 -12.8229
    -4.0208  -4.0138  -3.7270  -3.6431  -3.6283  -3.5006  -3.3170  -3.1127
     7.2059   7.5476   7.8415   8.2623   8.3848   8.4888   8.6895   8.9681
     9.1098   9.1902   9.2291   9.3031   9.4042   9.4511   9.4869   9.6053
     9.6640   9.6986   9.7322   9.7688   9.7880   9.8516   9.9042   9.9743
    10.3238  10.3497  10.4327  10.5421  10.5934  10.6722  10.6993  10.7555
    10.7927  10.8541  10.8717  10.9288  10.9958  11.0796  11.1371  11.1494
    11.1876  11.2680  11.3625  11.4195  11.4377  11.4710  11.5520  11.5730
    11.5987  11.6132  11.6322  11.7159  11.7676  11.7931  11.8409  11.8839
    11.9022  11.9723  11.9982  12.0978  12.1704  12.2235  12.2306  12.3128
    12.3187  12.3561  12.3894  12.4204  12.5599  12.6017  12.6365  12.6890
    12.7300  12.7593  12.8682  12.9241  12.9324  12.9695  12.9875  12.9891
    13.1197  13.1394  13.1659  13.2153  13.2993  13.3777  13.6286  13.6334
    13.8263  13.8654  14.7724  15.1241  15.2147  15.4429  15.6336  15.7498
    15.7673  15.9390  16.0148  16.1267  16.4054  16.4656  16.5955  16.9098
    16.9711  17.1321  17.2021  17.5244  17.9414  18.2383  18.4646  18.8373
    19.1444  19.5606  19.6061

     occupation numbers 
[...]
     hartree contribution      =    2039.09999552 Ry
     xc contribution           =    -552.01234726 Ry
     ewald contribution        =   -2560.53629313 Ry
     one-center paw contrib.   =     -72.90335139 Ry
      -> PAW hartree energy AE =      25.77250336 Ry
      -> PAW hartree energy PS =     -25.65299458 Ry
      -> PAW xc energy AE      =     -16.13854819 Ry
      -> PAW xc energy PS      =       6.90489300 Ry
      -> total E_H with PAW    =    2039.21950431 Ry
      -> total E_XC with PAW   =    -561.24600246 Ry
     smearing contrib. (-TS)   =       0.00201415 Ry

     total magnetization       =     8.44 Bohr mag/cell
     absolute magnetization    =     9.82 Bohr mag/cell

     convergence has been achieved in 104 iterations

     Forces acting on atoms (cartesian axes, Ry/au):

     atom    1 type  4   force =     0.02553300   -0.00280120    0.21490799
     atom    2 type  4   force =    -0.02047493   -0.00646211    0.25700386
     atom    3 type  2   force =     0.02565215    0.00028508    0.04112255
     atom    4 type  2   force =     0.07001924   -0.00147249    0.06092165
     atom    5 type  2   force =    -0.04968813    0.00037547    0.05411357
     atom    6 type  2   force =    -0.03374718   -0.00172327    0.02909958
     atom    7 type  2   force =    -0.01442100   -0.00044759   -0.02932351
     atom    8 type  2   force =     0.02737493    0.00121391   -0.02071960
     atom    9 type  2   force =    -0.00741366    0.00154295   -0.03227999
     atom   10 type  2   force =    -0.01660947   -0.00100899   -0.00387697
     atom   11 type  1   force =     0.04685221   -0.02386030   -0.07423753
     atom   12 type  1   force =     0.00629925   -0.01361240   -0.02879454
     atom   13 type  1   force =    -0.02484081   -0.01275529   -0.03391228
     atom   14 type  1   force =    -0.01140238    0.01525016    0.08521026
     atom   15 type  1   force =     0.00175854    0.01346696    0.01828787
     atom   16 type  1   force =    -0.03081656    0.02110341    0.02896498
     atom   17 type  1   force =     0.01368579   -0.01061562   -0.02883817
     atom   18 type  1   force =     0.02541205   -0.00960171   -0.21427686
     atom   19 type  1   force =    -0.07071315   -0.01854450   -0.07544292
     atom   20 type  1   force =     0.05678109    0.02183877    0.01492900
     atom   21 type  1   force =    -0.00379334    0.01128044    0.02139253
     atom   22 type  1   force =    -0.01364497    0.01339109    0.04971791
     atom   23 type  3   force =     0.00811704    0.00102367   -0.17171255
     atom   24 type  3   force =    -0.00991970    0.00213356   -0.16225684
     The non-local contrib.  to forces
     atom    1 type  4   force =    -0.00465362    0.00092676    0.00280799
     atom    2 type  4   force =     0.02081712    0.00361637   -0.12759657
     atom    3 type  2   force =     0.12814873    0.00783834    0.07793488
     atom    4 type  2   force =     0.43688857    0.00405361    0.26486159
     atom    5 type  2   force =    -0.29243017    0.01755747    0.36071811
     atom    6 type  2   force =    -0.22082843   -0.00219254   -0.02607138
     atom    7 type  2   force =    -0.42040232   -0.01127519   -0.16228685
     atom    8 type  2   force =    -0.11566197    0.00293532   -0.13066182
     atom    9 type  2   force =     0.23979579    0.00722733   -0.34089049
     atom   10 type  2   force =     0.28127628   -0.01571784    0.04192836
     atom   11 type  1   force =    -0.08415665    0.00696073   -0.10300885
     atom   12 type  1   force =     0.01487802   -0.00528472    0.04020497
     atom   13 type  1   force =     0.08182187   -0.01122535   -0.17951520
     atom   14 type  1   force =     0.08951204    0.02323438   -1.12748949
     atom   15 type  1   force =    -0.00708428    0.01390994   -0.47335972
     atom   16 type  1   force =    -0.04430794    0.00937637   -0.63154573
     atom   17 type  1   force =    -0.03850977   -0.02072500    0.50959980
     atom   18 type  1   force =    -0.15990080   -0.05732108    1.76450372
     atom   19 type  1   force =     0.13169866   -0.02326266    0.81308190
     atom   20 type  1   force =    -0.05468314    0.01638413    0.35302212
     atom   21 type  1   force =    -0.06175850    0.01555765   -0.03031593
     atom   22 type  1   force =     0.10227925    0.01115877    0.05940221
     atom   23 type  3   force =    -0.04352066    0.00022533    0.23323994
     atom   24 type  3   force =     0.01554324   -0.00132255    0.08544418
     The ionic contribution  to forces
     atom    1 type  4   force =     2.65586979   -0.43028161   35.39034921
     atom    2 type  4   force =    -2.18646827   -0.61312099   37.23269917
     atom    3 type  2   force =    -0.54756199   -0.22487759  -15.44667628
     atom    4 type  2   force =    -5.32384808   -0.25303136  -15.62645876
     atom    5 type  2   force =     3.84107382   -0.32162030  -17.12030117
     atom    6 type  2   force =     1.87994320   -0.20425049  -15.49101872
     atom    7 type  2   force =     5.63507019    0.24345361   15.43347717
     atom    8 type  2   force =     0.86344688    0.21473325   15.61263807
     atom    9 type  2   force =    -2.34436123    0.17029832   17.10498586
     atom   10 type  2   force =    -4.30476651    0.27987702   15.47930692
     atom   11 type  1   force =     8.78626738   -4.00426452  -64.47143169
     atom   12 type  1   force =     6.14964658   -3.54942887  -51.89978218
     atom   13 type  1   force =    -8.99780122   -3.77854757  -50.47576286
     atom   14 type  1   force =     1.93791692    3.61797024  -46.93797319
     atom   15 type  1   force =    -4.69144085    3.60805124  -61.54005913
     atom   16 type  1   force =    -3.38398497    4.19500137  -59.91493473
     atom   17 type  1   force =    11.31319794   -3.76260652   61.34901762
     atom   18 type  1   force =     1.38374979   -3.30974652   44.20382227
     atom   19 type  1   force =   -17.30323560   -4.21195661   59.96251168
     atom   20 type  1   force =    11.22831882    4.19502507   55.17013130
     atom   21 type  1   force =    -2.20493196    3.60801378   53.29521195
     atom   22 type  1   force =    -4.40272707    3.61797869   58.72529179
     atom   23 type  3   force =     4.54013691    0.38865785  -36.56959307
     atom   24 type  3   force =    -4.52351047    0.52467253  -33.46545122
     The local contribution  to forces
     atom    1 type  4   force =    -2.62680074    0.42667065  -35.17685331
     atom    2 type  4   force =     2.14714730    0.60330587  -36.85339610
     atom    3 type  2   force =     0.44601200    0.21740734   15.41207137
     atom    4 type  2   force =     4.96195062    0.24754856   15.42712588
     atom    5 type  2   force =    -3.60121067    0.30462059   16.81856242
     atom    6 type  2   force =    -1.69522249    0.20468908   15.54757088
     atom    7 type  2   force =    -5.23262679   -0.23275370  -15.30301465
     atom    8 type  2   force =    -0.72018580   -0.21641282  -15.50450597
     atom    9 type  2   force =     2.09851848   -0.17589189  -16.80015868
     atom   10 type  2   force =     4.00864070   -0.26534306  -15.52510374
     atom   11 type  1   force =    -8.65776250    3.97413441   64.50399528
     atom   12 type  1   force =    -6.15759186    3.54156964   51.83444694
     atom   13 type  1   force =     8.89378907    3.77758663   50.62309406
     atom   14 type  1   force =    -2.03738860   -3.62597776   48.13678607
     atom   15 type  1   force =     4.70224060   -3.60869109   62.03043865
     atom   16 type  1   force =     3.39492245   -4.18345616   60.56882023
     atom   17 type  1   force =   -11.26308739    3.77252017  -61.88550097
     atom   18 type  1   force =    -1.19918049    3.35682406  -46.16503941
     atom   19 type  1   force =    17.10391539    4.21635670  -60.84456454
     atom   20 type  1   force =   -11.11876335   -4.18955522  -55.50860499
     atom   21 type  1   force =     2.26166618   -3.61245413  -53.24724536
     atom   22 type  1   force =     4.28828643   -3.61600690  -58.74038427
     atom   23 type  3   force =    -4.49310276   -0.38799510   36.17711292
     atom   24 type  3   force =     4.50131218   -0.52154774   33.22231775
     The core correction contribution to forces
     atom    1 type  4   force =     0.00083154   -0.00011800   -0.00104378
     atom    2 type  4   force =    -0.00150948   -0.00026365    0.00572837
     atom    3 type  2   force =    -0.00126462   -0.00008250   -0.00206302
     atom    4 type  2   force =    -0.00456908   -0.00003983   -0.00426629
     atom    5 type  2   force =     0.00294364   -0.00018408   -0.00488342
     atom    6 type  2   force =     0.00225275    0.00003171   -0.00093359
     atom    7 type  2   force =     0.00331902    0.00012717    0.00268496
     atom    8 type  2   force =     0.00004237   -0.00004060    0.00202286
     atom    9 type  2   force =    -0.00134529   -0.00009030    0.00413463
     atom   10 type  2   force =    -0.00180449    0.00017811    0.00023978
     atom   11 type  1   force =     0.00118288   -0.00066620   -0.00410811
     atom   12 type  1   force =    -0.00058867   -0.00048851   -0.00413537
     atom   13 type  1   force =    -0.00145690   -0.00055217   -0.00209521
     atom   14 type  1   force =    -0.00267092    0.00002344    0.01365724
     atom   15 type  1   force =    -0.00024637    0.00019086    0.00082682
     atom   16 type  1   force =     0.00199426    0.00016876    0.00621187
     atom   17 type  1   force =     0.00103795    0.00017688   -0.00181770
     atom   18 type  1   force =     0.00212762    0.00062572   -0.01770573
     atom   19 type  1   force =    -0.00345524    0.00033887   -0.00743788
     atom   20 type  1   force =     0.00120382   -0.00001342   -0.00012128
     atom   21 type  1   force =     0.00107413    0.00016753    0.00401764
     atom   22 type  1   force =    -0.00066076    0.00025468    0.00457102
     atom   23 type  3   force =     0.00423904    0.00013822   -0.01244632
     atom   24 type  3   force =    -0.00285251    0.00032658   -0.00380091
     The Hubbard contrib.    to forces
     atom    1 type  4   force =     0.00000000    0.00000000    0.00000000
     atom    2 type  4   force =     0.00000000    0.00000000    0.00000000
     atom    3 type  2   force =     0.00000000    0.00000000    0.00000000
     atom    4 type  2   force =     0.00000000    0.00000000    0.00000000
     atom    5 type  2   force =     0.00000000    0.00000000    0.00000000
     atom    6 type  2   force =     0.00000000    0.00000000    0.00000000
     atom    7 type  2   force =     0.00000000    0.00000000    0.00000000
     atom    8 type  2   force =     0.00000000    0.00000000    0.00000000
     atom    9 type  2   force =     0.00000000    0.00000000    0.00000000
     atom   10 type  2   force =     0.00000000    0.00000000    0.00000000
     atom   11 type  1   force =     0.00000000    0.00000000    0.00000000
     atom   12 type  1   force =     0.00000000    0.00000000    0.00000000
     atom   13 type  1   force =     0.00000000    0.00000000    0.00000000
     atom   14 type  1   force =     0.00000000    0.00000000    0.00000000
     atom   15 type  1   force =     0.00000000    0.00000000    0.00000000
     atom   16 type  1   force =     0.00000000    0.00000000    0.00000000
     atom   17 type  1   force =     0.00000000    0.00000000    0.00000000
     atom   18 type  1   force =     0.00000000    0.00000000    0.00000000
     atom   19 type  1   force =     0.00000000    0.00000000    0.00000000
     atom   20 type  1   force =     0.00000000    0.00000000    0.00000000
     atom   21 type  1   force =     0.00000000    0.00000000    0.00000000
     atom   22 type  1   force =     0.00000000    0.00000000    0.00000000
     atom   23 type  3   force =     0.00000000    0.00000000    0.00000000
     atom   24 type  3   force =     0.00000000    0.00000000    0.00000000
     The SCF correction term to forces
     atom    1 type  4   force =     0.00029125    0.00000159   -0.00026709
     atom    2 type  4   force =    -0.00045639    0.00000088   -0.00034598
     atom    3 type  2   force =     0.00032325    0.00000008   -0.00005935
     atom    4 type  2   force =    -0.00039757   -0.00000288   -0.00025574
     atom    5 type  2   force =    -0.00005952    0.00000238    0.00010267
     atom    6 type  2   force =     0.00011301   -0.00000044   -0.00036257
     atom    7 type  2   force =     0.00022413    0.00000111   -0.00009910
     atom    8 type  2   force =    -0.00026133   -0.00000066   -0.00012771
     atom    9 type  2   force =    -0.00001618    0.00000007   -0.00026627
     atom   10 type  2   force =     0.00004978   -0.00000263   -0.00016326
     atom   11 type  1   force =     0.00132632   -0.00002414    0.00040087
     atom   12 type  1   force =    -0.00003960    0.00002064    0.00055612
     atom   13 type  1   force =    -0.00118840   -0.00001624    0.00045197
     atom   14 type  1   force =     0.00123341    0.00000045    0.00031467
     atom   15 type  1   force =    -0.00170534    0.00000660    0.00052629
     atom   16 type  1   force =     0.00056487    0.00001366    0.00049838
     atom   17 type  1   force =     0.00105229    0.00001945   -0.00005188
     atom   18 type  1   force =    -0.00137884    0.00001670    0.00022733
     atom   19 type  1   force =     0.00036888   -0.00002022    0.00105096
     atom   20 type  1   force =     0.00071017   -0.00000120    0.00058689
     atom   21 type  1   force =     0.00016203   -0.00000380   -0.00019073
     atom   22 type  1   force =    -0.00081759    0.00000644    0.00092220
     atom   23 type  3   force =     0.00036974   -0.00000204    0.00005900
     atom   24 type  3   force =    -0.00040691    0.00000533   -0.00068161

     Total force =     0.528344     Total SCF correction =     0.004236


     Computing stress (Cartesian axis) and pressure

          total   stress  (Ry/bohr**3)                   (kbar)     P=      -53.50
  -0.00008569   0.00000188  -0.00002930          -12.61        0.28       -4.31
   0.00000188  -0.00093426  -0.00001603            0.28     -137.43       -2.36
  -0.00002930  -0.00001603  -0.00007120           -4.31       -2.36      -10.47

     kinetic stress (kbar)  42881.10     -0.24     -3.30
                               -0.24  42756.21     -8.86
                               -3.30     -8.86  42572.07

     local   stress (kbar) -86465.20      8.21   -136.79
                                8.21 -94788.31    -52.27
                             -136.79    -52.27  80344.03

     nonloc. stress (kbar)  18647.25     -1.50     11.44
                               -1.50  18643.17      2.41
                               11.44      2.41  18567.93

     hartree stress (kbar)  81217.62     -3.82    101.45
                               -3.82  84451.79     70.40
                              101.45     70.40  -1858.61

     exc-cor stress (kbar) -10214.70      0.01     -0.38
                                0.01 -10211.03     -0.16
                               -0.38     -0.16 -10209.76

     corecor stress (kbar)  -3598.44      0.01     -0.03
                                0.01  -3598.00     -0.00
                               -0.03     -0.00  -3597.33

     ewald   stress (kbar) -42480.23     -2.39     23.30
                               -2.39 -37391.27    -13.88
                               23.30    -13.88-125828.80

     hubbard stress (kbar)      0.00      0.00      0.00
                                0.00      0.00      0.00
                                0.00      0.00      0.00

     london  stress (kbar)      0.00      0.00      0.00
                                0.00      0.00      0.00
                                0.00      0.00      0.00

     DFT-D3  stress (kbar)      0.00      0.00      0.00
                                0.00      0.00      0.00
                                0.00      0.00      0.00

     XDM     stress (kbar)      0.00      0.00      0.00
                                0.00      0.00      0.00
                                0.00      0.00      0.00

     dft-nl  stress (kbar)      0.00      0.00      0.00
                                0.00      0.00      0.00
                                0.00      0.00      0.00

     TS-vdW  stress (kbar)      0.00      0.00      0.00
                                0.00      0.00      0.00
                                0.00      0.00      0.00



     Writing output data file /tmp//Ti_Ni(100)_ZrO2(110)+vacuum.save/
 
     init_run     :     39.45s CPU    227.50s WALL (       1 calls)
     electrons    :   6915.44s CPU  51073.26s WALL (       1 calls)
     forces       :     15.64s CPU    123.74s WALL (       1 calls)
     stress       :     64.97s CPU    503.85s WALL (       1 calls)

     Called by init_run:
     wfcinit      :     28.60s CPU    166.06s WALL (       1 calls)
     wfcinit:atom :      0.09s CPU      0.83s WALL (      16 calls)
     wfcinit:wfcr :     27.66s CPU    160.61s WALL (      16 calls)
     potinit      :      3.03s CPU     17.06s WALL (       1 calls)
     hinit0       :      6.17s CPU     33.92s WALL (       1 calls)

     Called by electrons:
     c_bands      :   5746.78s CPU  42167.40s WALL (     104 calls)
     sum_band     :    968.25s CPU   7179.18s WALL (     104 calls)
     v_of_rho     :     37.01s CPU    261.07s WALL (     105 calls)
     v_h          :      1.49s CPU      8.66s WALL (     105 calls)
     v_xc         :     36.12s CPU    257.56s WALL (     107 calls)
     newd         :    116.22s CPU   1068.07s WALL (     105 calls)
     PAW_pot      :     27.85s CPU    232.18s WALL (     105 calls)
     mix_rho      :     16.68s CPU    140.13s WALL (     104 calls)

     Called by c_bands:
     init_us_2    :     23.64s CPU     96.59s WALL (    3376 calls)
     cegterg      :   5540.54s CPU  40770.31s WALL (    1664 calls)

     Called by sum_band:
     sum_band:bec :      1.50s CPU      1.54s WALL (    1664 calls)
     addusdens    :    198.79s CPU   1614.14s WALL (     104 calls)

     Called by *egterg:
     h_psi        :   3042.55s CPU  22021.80s WALL (    4409 calls)
     s_psi        :    348.07s CPU   2317.97s WALL (    4409 calls)
     g_psi        :     16.86s CPU    123.61s WALL (    2729 calls)
     cdiaghg      :    989.42s CPU   8292.68s WALL (    4393 calls)
     cegterg:over :    489.16s CPU   3398.34s WALL (    2729 calls)
     cegterg:upda :    266.74s CPU   1716.03s WALL (    2729 calls)
     cegterg:last :    193.73s CPU   1245.70s WALL (    1664 calls)
     cdiaghg:chol :     32.35s CPU    303.00s WALL (    4393 calls)
     cdiaghg:inve :     11.53s CPU     61.47s WALL (    4393 calls)
     cdiaghg:para :    119.94s CPU    842.56s WALL (    8786 calls)

     Called by h_psi:
     h_psi:calbec :    393.92s CPU   2707.80s WALL (    4409 calls)
     vloc_psi     :   2294.58s CPU  16968.66s WALL (    4409 calls)
     add_vuspsi   :    348.10s CPU   2155.27s WALL (    4409 calls)

     General routines
     calbec       :    587.75s CPU   4073.06s WALL (    6153 calls)
     fft          :     34.52s CPU    288.63s WALL (    2663 calls)
     ffts         :      1.16s CPU     10.98s WALL (     418 calls)
     fftw         :   2623.58s CPU  20803.74s WALL ( 1629790 calls)
     interpolate  :      2.32s CPU     16.96s WALL (     210 calls)
 
     Parallel routines
     fft_scatt_xy :    283.41s CPU    298.22s WALL ( 1632871 calls)
     fft_scatt_yz :   1405.72s CPU  19793.12s WALL ( 1632871 calls)

     PAW routines
     PAW_pot      :     27.85s CPU    232.18s WALL (     105 calls)
 
     PWSCF        :      1h57m CPU     14h31m WALL

 
   This run was terminated on:   7:41:31  23Aug2022            

=------------------------------------------------------------------------------=
   JOB DONE.
=------------------------------------------------------------------------------=
