
     Program PWSCF v.6.5 starts on 16Aug2022 at 12:21: 1 

     This program is part of the open-source Quantum ESPRESSO suite
     for quantum simulation of materials; please cite
         "P. Giannozzi et al., J. Phys.:Condens. Matter 21 395502 (2009);
         "P. Giannozzi et al., J. Phys.:Condens. Matter 29 465901 (2017);
          URL http://www.quantum-espresso.org", 
     in publications or presentations arising from this work. More details at
     http://www.quantum-espresso.org/quote

     Parallel version (MPI), running on     8 processors

     MPI processes distributed on     1 nodes
     R & G space division:  proc/nbgrp/npool/nimage =       8
     Waiting for input...
     Reading input from standard input

     Current dimensions of program PWSCF are:
     Max number of different atomic species (ntypx) = 10
     Max number of k-points (npk) =  40000
     Max angular momentum in pseudopotentials (lmaxx) =  3
               file O.pbesol-n-kjpaw_psl.0.1.UPF: wavefunction(s)  2P renormalized

     Subspace diagonalization in iterative solution of the eigenvalue problem:
     one sub-group per band group will be used
     scalapack distributed-memory algorithm (size of sub-group:  2*  2 procs)

 
     Parallelization info
     --------------------
     sticks:   dense  smooth     PW     G-vecs:    dense   smooth      PW
     Min         514     257     74                56098    19829    3038
     Max         515     258     75                56109    19836    3043
     Sum        4119    2061    595               448853   158659   24319
 


     bravais-lattice index     =            0
     lattice parameter (alat)  =      19.1327  a.u.
     unit-cell volume          =    3321.1782 (a.u.)^3
     number of atoms/cell      =           12
     number of atomic types    =            2
     number of electrons       =        96.00
     number of Kohn-Sham states=           58
     kinetic-energy cutoff     =      50.0000  Ry
     charge density cutoff     =     400.0000  Ry
     convergence threshold     =      1.0E-06
     mixing beta               =       0.4000
     number of iterations used =            8  plain     mixing
     Exchange-correlation= SLA  PW   PSX  PSC
                           (   1   4  10   8   0   0   0)

     celldm(1)=  19.132690  celldm(2)=   0.000000  celldm(3)=   0.000000
     celldm(4)=   0.000000  celldm(5)=   0.000000  celldm(6)=   0.000000

     crystal axes: (cart. coord. in units of alat)
               a(1) = (   1.000000   0.000000   0.000000 )  
               a(2) = (   0.000000   0.353553   0.000000 )  
               a(3) = (   0.000000   0.000000   1.341248 )  

     reciprocal axes: (cart. coord. in units 2 pi/alat)
               b(1) = (  1.000000  0.000000  0.000000 )  
               b(2) = (  0.000000  2.828428  0.000000 )  
               b(3) = (  0.000000  0.000000  0.745574 )  


     PseudoPot. # 1 for O  read from file:
     /home/zczlx99/q-e/pseudo/DFT/O.pbesol-n-kjpaw_psl.0.1.UPF
     MD5 check sum: 81d73d1479e654e5638b0319f0d6c2c7
     Pseudo is Projector augmented-wave + core cor, Zval =  6.0
     Generated using "atomic" code by A. Dal Corso v.6.0 svn rev. 13079
     Shape of augmentation charge: BESSEL
     Using radial grid of 1095 points,  4 beta functions with: 
                l(1) =   0
                l(2) =   0
                l(3) =   1
                l(4) =   1
     Q(r) pseudized with 0 coefficients 


     PseudoPot. # 2 for Zr read from file:
     /home/zczlx99/q-e/pseudo/DFT/zr_pbesol_v1.uspp.F.UPF
     MD5 check sum: f29f2a20533738a515abe666fee35838
     Pseudo is Ultrasoft + core correction, Zval = 12.0
     Generated by new atomic code, or converted to UPF format
     Using radial grid of  887 points,  6 beta functions with: 
                l(1) =   0
                l(2) =   0
                l(3) =   1
                l(4) =   1
                l(5) =   2
                l(6) =   2
     Q(r) pseudized with  6 coefficients,  rinner =    1.200   1.200   1.200
                                                       1.200   1.200

     atomic species   valence    mass     pseudopotential
        O              6.00    15.99940     O ( 1.00)
        Zr            12.00    91.22400     Zr( 1.00)

     Starting magnetic structure 
     atomic species   magnetization
        O            0.100
        Zr           0.417

     No symmetry found


                                    s                        frac. trans.

      isym =  1     identity                                     

 cryst.   s( 1) = (     1          0          0      )
                  (     0          1          0      )
                  (     0          0          1      )

 cart.    s( 1) = (  1.0000000  0.0000000  0.0000000 )
                  (  0.0000000  1.0000000  0.0000000 )
                  (  0.0000000  0.0000000  1.0000000 )


   Cartesian axes

     site n.     atom                  positions (alat units)
         1           Zr  tau(   1) = (   0.4745900   0.5225706   1.9824361  )
         2           Zr  tau(   2) = (   5.5368810   0.5225706   1.9824361  )
         3           Zr  tau(   3) = (   3.0057360   1.1553571   4.3829902  )
         4           Zr  tau(   4) = (   8.0680270   1.1553571   4.3829902  )
         5           O   tau(   5) = (   1.7401630   0.5225706   4.3829902  )
         6           O   tau(   6) = (   6.8024540   0.5225706   4.3829902  )
         7           O   tau(   7) = (   4.2713080   0.5225706   4.3829902  )
         8           O   tau(   8) = (   9.3336000   0.5225706   4.3829902  )
         9           O   tau(   9) = (   1.7401630   1.1553571   1.9824361  )
        10           O   tau(  10) = (   6.8024540   1.1553571   1.9824361  )
        11           O   tau(  11) = (   4.2713080   1.1553571   1.9824361  )
        12           O   tau(  12) = (   9.3336000   1.1553571   1.9824361  )

   Crystallographic axes

     site n.     atom                  positions (cryst. coord.)
         1           Zr  tau(   1) = (  0.4745900  1.4780530  1.4780530  )
         2           Zr  tau(   2) = (  5.5368810  1.4780530  1.4780530  )
         3           Zr  tau(   3) = (  3.0057360  3.2678440  3.2678440  )
         4           Zr  tau(   4) = (  8.0680270  3.2678440  3.2678440  )
         5           O   tau(   5) = (  1.7401630  1.4780530  3.2678440  )
         6           O   tau(   6) = (  6.8024540  1.4780530  3.2678440  )
         7           O   tau(   7) = (  4.2713080  1.4780530  3.2678440  )
         8           O   tau(   8) = (  9.3336000  1.4780530  3.2678440  )
         9           O   tau(   9) = (  1.7401630  3.2678440  1.4780530  )
        10           O   tau(  10) = (  6.8024540  3.2678440  1.4780530  )
        11           O   tau(  11) = (  4.2713080  3.2678440  1.4780530  )
        12           O   tau(  12) = (  9.3336000  3.2678440  1.4780530  )

     number of k points=    36  Marzari-Vanderbilt smearing, width (Ry)=  0.0147
                       cart. coord. in units 2pi/alat
        k(    1) = (   0.0000000   0.0000000   0.0000000), wk =   0.0156250
        k(    2) = (   0.0000000   0.0000000   0.1863935), wk =   0.0312500
        k(    3) = (   0.0000000   0.0000000  -0.3727871), wk =   0.0156250
        k(    4) = (   0.0000000   0.7071069   0.0000000), wk =   0.0312500
        k(    5) = (   0.0000000   0.7071069   0.1863935), wk =   0.0312500
        k(    6) = (   0.0000000   0.7071069  -0.3727871), wk =   0.0312500
        k(    7) = (   0.0000000  -1.4142138   0.0000000), wk =   0.0156250
        k(    8) = (   0.0000000  -1.4142138   0.1863935), wk =   0.0312500
        k(    9) = (   0.0000000  -1.4142138  -0.3727871), wk =   0.0156250
        k(   10) = (   0.2500000   0.0000000   0.0000000), wk =   0.0312500
        k(   11) = (   0.2500000   0.0000000   0.1863935), wk =   0.0312500
        k(   12) = (   0.2500000   0.0000000  -0.3727871), wk =   0.0312500
        k(   13) = (   0.2500000   0.7071069   0.0000000), wk =   0.0312500
        k(   14) = (   0.2500000   0.7071069   0.1863935), wk =   0.0312500
        k(   15) = (   0.2500000   0.7071069  -0.3727871), wk =   0.0312500
        k(   16) = (   0.2500000  -1.4142138   0.0000000), wk =   0.0312500
        k(   17) = (   0.2500000  -1.4142138   0.1863935), wk =   0.0312500
        k(   18) = (   0.2500000  -1.4142138  -0.3727871), wk =   0.0312500
        k(   19) = (  -0.5000000   0.0000000   0.0000000), wk =   0.0156250
        k(   20) = (  -0.5000000   0.0000000   0.1863935), wk =   0.0312500
        k(   21) = (  -0.5000000   0.0000000  -0.3727871), wk =   0.0156250
        k(   22) = (  -0.5000000   0.7071069   0.0000000), wk =   0.0312500
        k(   23) = (  -0.5000000   0.7071069   0.1863935), wk =   0.0312500
        k(   24) = (  -0.5000000   0.7071069  -0.3727871), wk =   0.0312500
        k(   25) = (  -0.5000000  -1.4142138   0.0000000), wk =   0.0156250
        k(   26) = (  -0.5000000  -1.4142138   0.1863935), wk =   0.0312500
        k(   27) = (  -0.5000000  -1.4142138  -0.3727871), wk =   0.0156250
        k(   28) = (   0.0000000  -0.7071069   0.1863935), wk =   0.0312500
        k(   29) = (  -0.2500000   0.0000000   0.1863935), wk =   0.0312500
        k(   30) = (  -0.2500000   0.7071069   0.0000000), wk =   0.0312500
        k(   31) = (  -0.2500000  -0.7071069   0.1863935), wk =   0.0312500
        k(   32) = (  -0.2500000   0.7071069  -0.1863935), wk =   0.0312500
        k(   33) = (   0.2500000  -0.7071069  -0.1863935), wk =   0.0312500
        k(   34) = (  -0.2500000   0.7071069   0.3727871), wk =   0.0312500
        k(   35) = (  -0.2500000   1.4142138   0.1863935), wk =   0.0312500
        k(   36) = (   0.5000000  -0.7071069   0.1863935), wk =   0.0312500

                       cryst. coord.
        k(    1) = (   0.0000000   0.0000000   0.0000000), wk =   0.0156250
        k(    2) = (   0.0000000   0.0000000   0.2500000), wk =   0.0312500
        k(    3) = (   0.0000000   0.0000000  -0.5000000), wk =   0.0156250
        k(    4) = (   0.0000000   0.2500000   0.0000000), wk =   0.0312500
        k(    5) = (   0.0000000   0.2500000   0.2500000), wk =   0.0312500
        k(    6) = (   0.0000000   0.2500000  -0.5000000), wk =   0.0312500
        k(    7) = (   0.0000000  -0.5000000   0.0000000), wk =   0.0156250
        k(    8) = (   0.0000000  -0.5000000   0.2500000), wk =   0.0312500
        k(    9) = (   0.0000000  -0.5000000  -0.5000000), wk =   0.0156250
        k(   10) = (   0.2500000   0.0000000   0.0000000), wk =   0.0312500
        k(   11) = (   0.2500000   0.0000000   0.2500000), wk =   0.0312500
        k(   12) = (   0.2500000   0.0000000  -0.5000000), wk =   0.0312500
        k(   13) = (   0.2500000   0.2500000   0.0000000), wk =   0.0312500
        k(   14) = (   0.2500000   0.2500000   0.2500000), wk =   0.0312500
        k(   15) = (   0.2500000   0.2500000  -0.5000000), wk =   0.0312500
        k(   16) = (   0.2500000  -0.5000000   0.0000000), wk =   0.0312500
        k(   17) = (   0.2500000  -0.5000000   0.2500000), wk =   0.0312500
        k(   18) = (   0.2500000  -0.5000000  -0.5000000), wk =   0.0312500
        k(   19) = (  -0.5000000   0.0000000   0.0000000), wk =   0.0156250
        k(   20) = (  -0.5000000   0.0000000   0.2500000), wk =   0.0312500
        k(   21) = (  -0.5000000   0.0000000  -0.5000000), wk =   0.0156250
        k(   22) = (  -0.5000000   0.2500000   0.0000000), wk =   0.0312500
        k(   23) = (  -0.5000000   0.2500000   0.2500000), wk =   0.0312500
        k(   24) = (  -0.5000000   0.2500000  -0.5000000), wk =   0.0312500
        k(   25) = (  -0.5000000  -0.5000000   0.0000000), wk =   0.0156250
        k(   26) = (  -0.5000000  -0.5000000   0.2500000), wk =   0.0312500
        k(   27) = (  -0.5000000  -0.5000000  -0.5000000), wk =   0.0156250
        k(   28) = (   0.0000000  -0.2500000   0.2500000), wk =   0.0312500
        k(   29) = (  -0.2500000   0.0000000   0.2500000), wk =   0.0312500
        k(   30) = (  -0.2500000   0.2500000   0.0000000), wk =   0.0312500
        k(   31) = (  -0.2500000  -0.2500000   0.2500000), wk =   0.0312500
        k(   32) = (  -0.2500000   0.2500000  -0.2500000), wk =   0.0312500
        k(   33) = (   0.2500000  -0.2500000  -0.2500000), wk =   0.0312500
        k(   34) = (  -0.2500000   0.2500000   0.5000000), wk =   0.0312500
        k(   35) = (  -0.2500000   0.5000000   0.2500000), wk =   0.0312500
        k(   36) = (   0.5000000  -0.2500000   0.2500000), wk =   0.0312500

     Dense  grid:   448853 G-vectors     FFT dimensions: ( 125,  45, 180)

     Smooth grid:   158659 G-vectors     FFT dimensions: (  90,  32, 120)

     Dynamical RAM for                 wfc:       2.19 MB

     Dynamical RAM for     wfc (w. buffer):     160.09 MB

     Dynamical RAM for           str. fact:       1.71 MB

     Dynamical RAM for           local pot:       0.00 MB

     Dynamical RAM for          nlocal pot:       5.14 MB

     Dynamical RAM for                qrad:       9.76 MB

     Dynamical RAM for          rho,v,vnew:      11.06 MB

     Dynamical RAM for               rhoin:       3.69 MB

     Dynamical RAM for            rho*nmix:      27.40 MB

     Dynamical RAM for           G-vectors:       3.36 MB

     Dynamical RAM for          h,s,v(r/c):       0.62 MB

     Dynamical RAM for          <psi|beta>:       0.12 MB

     Dynamical RAM for                 psi:       8.77 MB

     Dynamical RAM for                hpsi:       8.77 MB

     Dynamical RAM for                spsi:       8.77 MB

     Dynamical RAM for      wfcinit/wfcrot:       6.51 MB

     Dynamical RAM for           addusdens:     166.94 MB

     Dynamical RAM for          addusforce:     189.30 MB

     Dynamical RAM for         addusstress:     173.37 MB

     Estimated static dynamical RAM per process >     230.71 MB

     Estimated max dynamical RAM per process >     420.00 MB

     Estimated total dynamical RAM >       3.28 GB
     Generating pointlists ...
     new r_m :   0.0257 (alat units)  0.4916 (a.u.) for type    1
     new r_m :   0.0257 (alat units)  0.4916 (a.u.) for type    2

     Check: negative core charge=   -0.000001

     Initial potential from superposition of free atoms

     starting charge   95.99210, renormalised to   96.00000
     Starting wfcs are   84 randomized atomic wfcs
     Checking if some PAW data can be deallocated... 
       PAW data deallocated on    2 nodes for type:  1

     total cpu time spent up to now is       62.8 secs

     Self-consistent Calculation

     iteration #  1     ecut=    50.00 Ry     beta= 0.40
     Davidson diagonalization with overlap
     ethr =  1.00E-02,  avg # of iterations =  4.6

     total cpu time spent up to now is      412.3 secs

     total energy              =    -544.40747767 Ry
     Harris-Foulkes estimate   =    -582.22097943 Ry
     estimated scf accuracy    <      64.66748764 Ry

     total magnetization       =     4.00 Bohr mag/cell
     absolute magnetization    =     4.23 Bohr mag/cell

     iteration #  2     ecut=    50.00 Ry     beta= 0.40
     Davidson diagonalization with overlap
     ethr =  1.00E-02,  avg # of iterations =  5.9

     total cpu time spent up to now is      780.5 secs

     total energy              =    -553.20356956 Ry
     Harris-Foulkes estimate   =    -569.17806622 Ry
     estimated scf accuracy    <      42.25369962 Ry

     total magnetization       =     1.03 Bohr mag/cell
     absolute magnetization    =     1.18 Bohr mag/cell

     iteration #  3     ecut=    50.00 Ry     beta= 0.40
     Davidson diagonalization with overlap
     ethr =  1.00E-02,  avg # of iterations =  4.0

     total cpu time spent up to now is     1041.1 secs

     total energy              =    -562.69696310 Ry
     Harris-Foulkes estimate   =    -564.78193503 Ry
     estimated scf accuracy    <       8.42193580 Ry

     total magnetization       =     1.41 Bohr mag/cell
     absolute magnetization    =     1.54 Bohr mag/cell

     iteration #  4     ecut=    50.00 Ry     beta= 0.40
     Davidson diagonalization with overlap
     ethr =  8.77E-03,  avg # of iterations =  2.8

     total cpu time spent up to now is     1217.5 secs

     total energy              =    -562.93059925 Ry
     Harris-Foulkes estimate   =    -563.61934368 Ry
     estimated scf accuracy    <       3.73226766 Ry

     total magnetization       =     1.50 Bohr mag/cell
     absolute magnetization    =     1.65 Bohr mag/cell

     iteration #  5     ecut=    50.00 Ry     beta= 0.40
     Davidson diagonalization with overlap
     ethr =  3.89E-03,  avg # of iterations =  3.9

     total cpu time spent up to now is     1468.3 secs

     total energy              =    -563.00349293 Ry
     Harris-Foulkes estimate   =    -563.20081673 Ry
     estimated scf accuracy    <       1.10413184 Ry

     total magnetization       =     2.03 Bohr mag/cell
     absolute magnetization    =     2.08 Bohr mag/cell

     iteration #  6     ecut=    50.00 Ry     beta= 0.40
     Davidson diagonalization with overlap
     ethr =  1.15E-03,  avg # of iterations =  5.2

     total cpu time spent up to now is     1787.3 secs

     total energy              =    -562.90518740 Ry
     Harris-Foulkes estimate   =    -563.21508052 Ry
     estimated scf accuracy    <       2.23770356 Ry

     total magnetization       =     0.93 Bohr mag/cell
     absolute magnetization    =     1.04 Bohr mag/cell

     iteration #  7     ecut=    50.00 Ry     beta= 0.40
     Davidson diagonalization with overlap
     ethr =  1.15E-03,  avg # of iterations =  2.2

     total cpu time spent up to now is     1986.1 secs

     total energy              =    -563.05848067 Ry
     Harris-Foulkes estimate   =    -563.20996472 Ry
     estimated scf accuracy    <       1.33342330 Ry

     total magnetization       =     2.12 Bohr mag/cell
     absolute magnetization    =     2.13 Bohr mag/cell

     iteration #  8     ecut=    50.00 Ry     beta= 0.40
     Davidson diagonalization with overlap
     ethr =  1.15E-03,  avg # of iterations =  2.8

     total cpu time spent up to now is     2193.9 secs

     total energy              =    -563.04001635 Ry
     Harris-Foulkes estimate   =    -563.35244775 Ry
     estimated scf accuracy    <       4.78200532 Ry

     total magnetization       =     0.95 Bohr mag/cell
     absolute magnetization    =     0.97 Bohr mag/cell

     iteration #  9     ecut=    50.00 Ry     beta= 0.40
     Davidson diagonalization with overlap
     ethr =  1.15E-03,  avg # of iterations =  1.3

     total cpu time spent up to now is     2386.7 secs

     total energy              =    -563.13325191 Ry
     Harris-Foulkes estimate   =    -563.17487626 Ry
     estimated scf accuracy    <       0.37439591 Ry

     total magnetization       =     1.43 Bohr mag/cell
     absolute magnetization    =     1.46 Bohr mag/cell

     iteration # 10     ecut=    50.00 Ry     beta= 0.40
     Davidson diagonalization with overlap
     ethr =  3.90E-04,  avg # of iterations =  1.6

     total cpu time spent up to now is     2588.4 secs

     total energy              =    -563.14985254 Ry
     Harris-Foulkes estimate   =    -563.16298562 Ry
     estimated scf accuracy    <       0.10799275 Ry

     total magnetization       =     1.49 Bohr mag/cell
     absolute magnetization    =     1.52 Bohr mag/cell

     iteration # 11     ecut=    50.00 Ry     beta= 0.40
     Davidson diagonalization with overlap
     ethr =  1.12E-04,  avg # of iterations =  2.8

     total cpu time spent up to now is     2812.1 secs

     total energy              =    -563.15688457 Ry
     Harris-Foulkes estimate   =    -563.15739542 Ry
     estimated scf accuracy    <       0.01267270 Ry

     total magnetization       =     1.53 Bohr mag/cell
     absolute magnetization    =     1.57 Bohr mag/cell

     iteration # 12     ecut=    50.00 Ry     beta= 0.40
     Davidson diagonalization with overlap
     ethr =  1.32E-05,  avg # of iterations =  5.1

     total cpu time spent up to now is     3130.0 secs

     total energy              =    -563.15843183 Ry
     Harris-Foulkes estimate   =    -563.15885534 Ry
     estimated scf accuracy    <       0.00547216 Ry

     total magnetization       =     1.58 Bohr mag/cell
     absolute magnetization    =     1.65 Bohr mag/cell

     iteration # 13     ecut=    50.00 Ry     beta= 0.40
     Davidson diagonalization with overlap
     ethr =  5.70E-06,  avg # of iterations =  2.2

     total cpu time spent up to now is     3358.0 secs

     total energy              =    -563.15958432 Ry
     Harris-Foulkes estimate   =    -563.15902983 Ry
     estimated scf accuracy    <       0.00102199 Ry

     total magnetization       =     1.62 Bohr mag/cell
     absolute magnetization    =     1.70 Bohr mag/cell

     iteration # 14     ecut=    50.00 Ry     beta= 0.40
     Davidson diagonalization with overlap
     ethr =  1.06E-06,  avg # of iterations =  3.8

     total cpu time spent up to now is     3586.3 secs

     total energy              =    -563.16038003 Ry
     Harris-Foulkes estimate   =    -563.15986867 Ry
     estimated scf accuracy    <       0.00142398 Ry

     total magnetization       =     1.74 Bohr mag/cell
     absolute magnetization    =     1.84 Bohr mag/cell

     iteration # 15     ecut=    50.00 Ry     beta= 0.40
     Davidson diagonalization with overlap
     ethr =  1.06E-06,  avg # of iterations =  2.4

     total cpu time spent up to now is     3801.4 secs

     total energy              =    -563.16108864 Ry
     Harris-Foulkes estimate   =    -563.16055695 Ry
     estimated scf accuracy    <       0.00073337 Ry

     total magnetization       =     1.83 Bohr mag/cell
     absolute magnetization    =     1.95 Bohr mag/cell

     iteration # 16     ecut=    50.00 Ry     beta= 0.40
     Davidson diagonalization with overlap
     c_bands:  1 eigenvalues not converged
     ethr =  7.64E-07,  avg # of iterations =  3.9

     total cpu time spent up to now is     4033.7 secs

     total energy              =    -563.16172180 Ry
     Harris-Foulkes estimate   =    -563.16131292 Ry
     estimated scf accuracy    <       0.00021687 Ry

     total magnetization       =     1.93 Bohr mag/cell
     absolute magnetization    =     2.07 Bohr mag/cell

     iteration # 17     ecut=    50.00 Ry     beta= 0.40
     Davidson diagonalization with overlap
     ethr =  2.26E-07,  avg # of iterations =  4.7

     total cpu time spent up to now is     4306.6 secs

     total energy              =    -563.16205838 Ry
     Harris-Foulkes estimate   =    -563.16199066 Ry
     estimated scf accuracy    <       0.00049590 Ry

     total magnetization       =     2.07 Bohr mag/cell
     absolute magnetization    =     2.25 Bohr mag/cell

     iteration # 18     ecut=    50.00 Ry     beta= 0.40
     Davidson diagonalization with overlap
     ethr =  2.26E-07,  avg # of iterations =  4.2

     total cpu time spent up to now is     4614.8 secs

     total energy              =    -563.16242474 Ry
     Harris-Foulkes estimate   =    -563.16239162 Ry
     estimated scf accuracy    <       0.00009576 Ry

     total magnetization       =     2.20 Bohr mag/cell
     absolute magnetization    =     2.43 Bohr mag/cell

     iteration # 19     ecut=    50.00 Ry     beta= 0.40
     Davidson diagonalization with overlap
     ethr =  9.98E-08,  avg # of iterations =  2.1

     total cpu time spent up to now is     4821.8 secs

     total energy              =    -563.16248496 Ry
     Harris-Foulkes estimate   =    -563.16243833 Ry
     estimated scf accuracy    <       0.00002771 Ry

     total magnetization       =     2.21 Bohr mag/cell
     absolute magnetization    =     2.45 Bohr mag/cell

     iteration # 20     ecut=    50.00 Ry     beta= 0.40
     Davidson diagonalization with overlap
     ethr =  2.89E-08,  avg # of iterations =  3.0

     total cpu time spent up to now is     5049.6 secs

     total energy              =    -563.16253586 Ry
     Harris-Foulkes estimate   =    -563.16249974 Ry
     estimated scf accuracy    <       0.00003392 Ry

     total magnetization       =     2.25 Bohr mag/cell
     absolute magnetization    =     2.49 Bohr mag/cell

     iteration # 21     ecut=    50.00 Ry     beta= 0.40
     Davidson diagonalization with overlap
     ethr =  2.89E-08,  avg # of iterations =  2.5

     total cpu time spent up to now is     5294.2 secs

     total energy              =    -563.16254037 Ry
     Harris-Foulkes estimate   =    -563.16254383 Ry
     estimated scf accuracy    <       0.00004048 Ry

     total magnetization       =     2.28 Bohr mag/cell
     absolute magnetization    =     2.52 Bohr mag/cell

     iteration # 22     ecut=    50.00 Ry     beta= 0.40
     Davidson diagonalization with overlap
     ethr =  2.89E-08,  avg # of iterations =  1.0

     total cpu time spent up to now is     5492.7 secs

     total energy              =    -563.16252936 Ry
     Harris-Foulkes estimate   =    -563.16254113 Ry
     estimated scf accuracy    <       0.00003366 Ry

     total magnetization       =     2.28 Bohr mag/cell
     absolute magnetization    =     2.52 Bohr mag/cell

     iteration # 23     ecut=    50.00 Ry     beta= 0.40
     Davidson diagonalization with overlap
     ethr =  2.89E-08,  avg # of iterations =  1.5

     total cpu time spent up to now is     5682.9 secs

     total energy              =    -563.16247837 Ry
     Harris-Foulkes estimate   =    -563.16253078 Ry
     estimated scf accuracy    <       0.00003212 Ry

     total magnetization       =     2.27 Bohr mag/cell
     absolute magnetization    =     2.51 Bohr mag/cell

     iteration # 24     ecut=    50.00 Ry     beta= 0.40
     Davidson diagonalization with overlap
     ethr =  2.89E-08,  avg # of iterations =  2.6

     total cpu time spent up to now is     5911.1 secs

     total energy              =    -563.16231329 Ry
     Harris-Foulkes estimate   =    -563.16249010 Ry
     estimated scf accuracy    <       0.00003343 Ry

     total magnetization       =     2.24 Bohr mag/cell
     absolute magnetization    =     2.48 Bohr mag/cell

     iteration # 25     ecut=    50.00 Ry     beta= 0.40
     Davidson diagonalization with overlap
     ethr =  2.89E-08,  avg # of iterations =  3.9

     total cpu time spent up to now is     6194.7 secs

     total energy              =    -563.16238044 Ry
     Harris-Foulkes estimate   =    -563.16241048 Ry
     estimated scf accuracy    <       0.00001812 Ry

     total magnetization       =     2.16 Bohr mag/cell
     absolute magnetization    =     2.42 Bohr mag/cell

     iteration # 26     ecut=    50.00 Ry     beta= 0.40
     Davidson diagonalization with overlap
     ethr =  1.89E-08,  avg # of iterations =  3.6

     total cpu time spent up to now is     6473.2 secs

     total energy              =    -563.16243286 Ry
     Harris-Foulkes estimate   =    -563.16242892 Ry
     estimated scf accuracy    <       0.00001410 Ry

     total magnetization       =     2.14 Bohr mag/cell
     absolute magnetization    =     2.43 Bohr mag/cell

     iteration # 27     ecut=    50.00 Ry     beta= 0.40
     Davidson diagonalization with overlap
     ethr =  1.47E-08,  avg # of iterations =  3.1

     total cpu time spent up to now is     6707.2 secs

     total energy              =    -563.16243040 Ry
     Harris-Foulkes estimate   =    -563.16244330 Ry
     estimated scf accuracy    <       0.00003320 Ry

     total magnetization       =     2.15 Bohr mag/cell
     absolute magnetization    =     2.45 Bohr mag/cell

     iteration # 28     ecut=    50.00 Ry     beta= 0.40
     Davidson diagonalization with overlap
     ethr =  1.47E-08,  avg # of iterations =  2.9

     total cpu time spent up to now is     6921.0 secs

     total energy              =    -563.16244341 Ry
     Harris-Foulkes estimate   =    -563.16244154 Ry
     estimated scf accuracy    <       0.00000849 Ry

     total magnetization       =     2.14 Bohr mag/cell
     absolute magnetization    =     2.45 Bohr mag/cell

     iteration # 29     ecut=    50.00 Ry     beta= 0.40
     Davidson diagonalization with overlap
     ethr =  8.84E-09,  avg # of iterations =  1.8

     total cpu time spent up to now is     7116.9 secs

     total energy              =    -563.16244081 Ry
     Harris-Foulkes estimate   =    -563.16244463 Ry
     estimated scf accuracy    <       0.00001019 Ry

     total magnetization       =     2.15 Bohr mag/cell
     absolute magnetization    =     2.45 Bohr mag/cell

     iteration # 30     ecut=    50.00 Ry     beta= 0.40
     Davidson diagonalization with overlap
     ethr =  8.84E-09,  avg # of iterations =  2.7

     total cpu time spent up to now is     7340.7 secs

     total energy              =    -563.16244721 Ry
     Harris-Foulkes estimate   =    -563.16244575 Ry
     estimated scf accuracy    <       0.00000491 Ry

     total magnetization       =     2.14 Bohr mag/cell
     absolute magnetization    =     2.46 Bohr mag/cell

     iteration # 31     ecut=    50.00 Ry     beta= 0.40
     Davidson diagonalization with overlap
     ethr =  5.12E-09,  avg # of iterations =  2.5

     total cpu time spent up to now is     7581.5 secs

     total energy              =    -563.16244748 Ry
     Harris-Foulkes estimate   =    -563.16244878 Ry
     estimated scf accuracy    <       0.00000132 Ry

     total magnetization       =     2.15 Bohr mag/cell
     absolute magnetization    =     2.46 Bohr mag/cell

     iteration # 32     ecut=    50.00 Ry     beta= 0.40
     Davidson diagonalization with overlap
     ethr =  1.37E-09,  avg # of iterations =  3.5
 
     Magnetic moment per site:
     atom:    1    charge:    0.4259    magn:   -0.0006    constr:    0.0000
     atom:    2    charge:    0.4081    magn:   -0.0002    constr:    0.0000
     atom:    3    charge:    0.4281    magn:    0.0002    constr:    0.0000
     atom:    4    charge:    0.4277    magn:   -0.0008    constr:    0.0000
     atom:    5    charge:    0.8593    magn:    0.0033    constr:    0.0000
     atom:    6    charge:    0.8695    magn:    0.0026    constr:    0.0000
     atom:    7    charge:    0.8799    magn:    0.0417    constr:    0.0000
     atom:    8    charge:    0.8681    magn:    0.0312    constr:    0.0000
     atom:    9    charge:    0.8729    magn:    0.0379    constr:    0.0000
     atom:   10    charge:    0.8722    magn:    0.0263    constr:    0.0000
     atom:   11    charge:    0.8888    magn:   -0.0003    constr:    0.0000
     atom:   12    charge:    0.8742    magn:   -0.0005    constr:    0.0000

     total cpu time spent up to now is     7861.7 secs

     End of self-consistent calculation

 ------ SPIN UP ------------


          k = 0.0000 0.0000 0.0000 ( 19909 PWs)   bands (ev):

   -54.0071 -52.7613 -51.6318 -51.6203 -51.5427 -51.5291 -51.4702 -51.3469
   -50.3724 -50.3405 -47.8587 -46.4020 -28.2275 -27.8406 -27.7856 -27.7522
   -27.6857 -27.6749 -27.6135 -27.5598 -24.6762 -20.7761 -18.5277 -17.9035
   -17.2670 -16.9376 -16.0220 -15.8200 -15.3180 -15.0945 -13.4274 -11.9534
   -11.7739 -11.7168 -10.4613 -10.1747  -9.3198  -8.9629  -3.6550  -3.1769
    -2.4704  -1.8537  -1.5713  -0.4888   0.9850   1.5821   1.6741   1.8182
     2.1555   2.3747   2.4563   2.5947   2.7306   2.9360   2.9766   3.2709
     3.4479   3.6672

     occupation numbers 
     1.0000   1.0000   1.0000   1.0000   1.0000   1.0000   1.0000   1.0000
     1.0000   1.0000   1.0000   1.0000   1.0000   1.0000   1.0000   1.0000
     1.0000   1.0000   1.0000   1.0000   1.0000   1.0000   1.0000   1.0000
     1.0000   1.0000   1.0000   1.0000   1.0000   1.0000   1.0000   1.0000
     1.0000   1.0000   1.0000   1.0000   1.0000   1.0000   1.0000   1.0000
     1.0000   1.0000   1.0000   1.0000   1.0000   1.0019   1.0112   1.0637
     0.4502   0.0270   0.0053   0.0002   0.0000   0.0000   0.0000   0.0000
     0.0000   0.0000

          k = 0.0000 0.0000 0.1864 ( 19860 PWs)   bands (ev):

   -54.0071 -52.7613 -51.6315 -51.6199 -51.5426 -51.5288 -51.4702 -51.3466
   -50.3723 -50.3405 -47.8586 -46.4020 -28.2273 -27.8405 -27.7854 -27.7522
   -27.6855 -27.6746 -27.6133 -27.5595 -24.6761 -20.7761 -18.5275 -17.9032
   -17.2671 -16.9376 -16.0219 -15.8200 -15.3179 -15.0944 -13.4274 -11.9534
   -11.7739 -11.7167 -10.4613 -10.1747  -9.3198  -8.9629  -3.6550  -3.1768
    -2.4703  -1.8537  -1.5713  -0.4888   0.9857   1.5815   1.6723   1.8129
     2.1687   2.3747   2.4548   2.5925   2.7304   2.9355   2.9762   3.2730
     3.4664   3.6494

     occupation numbers 
     1.0000   1.0000   1.0000   1.0000   1.0000   1.0000   1.0000   1.0000
     1.0000   1.0000   1.0000   1.0000   1.0000   1.0000   1.0000   1.0000
     1.0000   1.0000   1.0000   1.0000   1.0000   1.0000   1.0000   1.0000
     1.0000   1.0000   1.0000   1.0000   1.0000   1.0000   1.0000   1.0000
     1.0000   1.0000   1.0000   1.0000   1.0000   1.0000   1.0000   1.0000
     1.0000   1.0000   1.0000   1.0000   1.0000   1.0019   1.0109   1.0612
     0.4041   0.0270   0.0055   0.0002   0.0000   0.0000   0.0000   0.0000
     0.0000   0.0000

          k = 0.0000 0.0000-0.3728 ( 19930 PWs)   bands (ev):

   -54.0071 -52.7613 -51.6315 -51.6200 -51.5426 -51.5289 -51.4703 -51.3467
   -50.3724 -50.3405 -47.8587 -46.4021 -28.2274 -27.8408 -27.7856 -27.7525
   -27.6858 -27.6748 -27.6138 -27.5600 -24.6762 -20.7762 -18.5274 -17.9031
   -17.2674 -16.9378 -16.0221 -15.8201 -15.3178 -15.0944 -13.4274 -11.9534
   -11.7739 -11.7167 -10.4613 -10.1747  -9.3199  -8.9629  -3.6550  -3.1770
    -2.4704  -1.8538  -1.5713  -0.4888   0.9864   1.5809   1.6705   1.8080
     2.1815   2.3748   2.4529   2.5901   2.7301   2.9349   2.9754   3.2788
     3.4831   3.6227

     occupation numbers 
     1.0000   1.0000   1.0000   1.0000   1.0000   1.0000   1.0000   1.0000
     1.0000   1.0000   1.0000   1.0000   1.0000   1.0000   1.0000   1.0000
     1.0000   1.0000   1.0000   1.0000   1.0000   1.0000   1.0000   1.0000
     1.0000   1.0000   1.0000   1.0000   1.0000   1.0000   1.0000   1.0000
     1.0000   1.0000   1.0000   1.0000   1.0000   1.0000   1.0000   1.0000
     1.0000   1.0000   1.0000   1.0000   1.0000   1.0019   1.0106   1.0589
     0.3610   0.0270   0.0057   0.0002   0.0000   0.0000   0.0000   0.0000
     0.0000   0.0000

          k = 0.0000 0.7071 0.0000 ( 19813 PWs)   bands (ev):

   -54.0015 -52.7559 -51.6306 -51.6190 -51.5504 -51.5279 -51.4697 -51.3460
   -50.3785 -50.3418 -47.8574 -46.4007 -28.2496 -27.8441 -27.8003 -27.7525
   -27.7006 -27.6917 -27.6119 -27.5657 -24.6534 -20.7383 -18.5367 -17.8925
   -17.2606 -16.9451 -15.9710 -15.7902 -15.2980 -15.1045 -13.4158 -11.9400
   -11.7955 -11.7583 -10.2928 -10.2466  -9.1053  -9.0798  -3.7508  -3.2479
    -2.0903  -1.5151  -1.3296  -0.0669   0.6283   1.3341   1.6773   1.9343
     1.9691   2.2923   2.3634   2.5358   2.6377   2.9637   3.2160   3.5146
     3.8879   4.1135

     occupation numbers 
     1.0000   1.0000   1.0000   1.0000   1.0000   1.0000   1.0000   1.0000
     1.0000   1.0000   1.0000   1.0000   1.0000   1.0000   1.0000   1.0000
     1.0000   1.0000   1.0000   1.0000   1.0000   1.0000   1.0000   1.0000
     1.0000   1.0000   1.0000   1.0000   1.0000   1.0000   1.0000   1.0000
     1.0000   1.0000   1.0000   1.0000   1.0000   1.0000   1.0000   1.0000
     1.0000   1.0000   1.0000   1.0000   1.0000   1.0000   1.0118   1.0667
     1.0278   0.1008   0.0330   0.0008   0.0000   0.0000   0.0000   0.0000
     0.0000   0.0000

          k = 0.0000 0.7071 0.1864 ( 19830 PWs)   bands (ev):

   -54.0015 -52.7559 -51.6307 -51.6191 -51.5504 -51.5280 -51.4697 -51.3461
   -50.3785 -50.3418 -47.8574 -46.4007 -28.2496 -27.8441 -27.8004 -27.7526
   -27.7005 -27.6917 -27.6119 -27.5657 -24.6535 -20.7383 -18.5366 -17.8925
   -17.2607 -16.9452 -15.9710 -15.7903 -15.2980 -15.1046 -13.4158 -11.9400
   -11.7955 -11.7583 -10.2928 -10.2467  -9.1053  -9.0798  -3.7508  -3.2479
    -2.0903  -1.5151  -1.3296  -0.0669   0.6284   1.3339   1.6772   1.9348
     1.9691   2.2919   2.3650   2.5354   2.6360   2.9539   3.2292   3.5124
     3.9029   4.1127

     occupation numbers 
     1.0000   1.0000   1.0000   1.0000   1.0000   1.0000   1.0000   1.0000
     1.0000   1.0000   1.0000   1.0000   1.0000   1.0000   1.0000   1.0000
     1.0000   1.0000   1.0000   1.0000   1.0000   1.0000   1.0000   1.0000
     1.0000   1.0000   1.0000   1.0000   1.0000   1.0000   1.0000   1.0000
     1.0000   1.0000   1.0000   1.0000   1.0000   1.0000   1.0000   1.0000
     1.0000   1.0000   1.0000   1.0000   1.0000   1.0000   1.0118   1.0663
     1.0277   0.1014   0.0321   0.0008   0.0000   0.0000   0.0000   0.0000
     0.0000   0.0000

          k = 0.0000 0.7071-0.3728 ( 19850 PWs)   bands (ev):

   -54.0015 -52.7559 -51.6306 -51.6191 -51.5504 -51.5280 -51.4697 -51.3461
   -50.3785 -50.3418 -47.8575 -46.4007 -28.2497 -27.8441 -27.8004 -27.7525
   -27.7006 -27.6918 -27.6120 -27.5657 -24.6535 -20.7383 -18.5367 -17.8926
   -17.2606 -16.9452 -15.9710 -15.7902 -15.2981 -15.1045 -13.4158 -11.9400
   -11.7955 -11.7583 -10.2928 -10.2467  -9.1053  -9.0798  -3.7508  -3.2480
    -2.0903  -1.5151  -1.3296  -0.0669   0.6286   1.3336   1.6771   1.9327
     1.9684   2.2907   2.3681   2.5382   2.6373   2.9451   3.2374   3.5219
     3.9126   4.1034

     occupation numbers 
     1.0000   1.0000   1.0000   1.0000   1.0000   1.0000   1.0000   1.0000
     1.0000   1.0000   1.0000   1.0000   1.0000   1.0000   1.0000   1.0000
     1.0000   1.0000   1.0000   1.0000   1.0000   1.0000   1.0000   1.0000
     1.0000   1.0000   1.0000   1.0000   1.0000   1.0000   1.0000   1.0000
     1.0000   1.0000   1.0000   1.0000   1.0000   1.0000   1.0000   1.0000
     1.0000   1.0000   1.0000   1.0000   1.0000   1.0000   1.0118   1.0679
     1.0287   0.1031   0.0303   0.0008   0.0000   0.0000   0.0000   0.0000
     0.0000   0.0000

          k = 0.0000-1.4142 0.0000 ( 19740 PWs)   bands (ev):

   -53.9958 -52.7505 -51.6300 -51.6185 -51.5583 -51.5273 -51.4692 -51.3457
   -50.3853 -50.3425 -47.8562 -46.3992 -28.2715 -27.8531 -27.8087 -27.7558
   -27.7139 -27.7075 -27.6100 -27.5699 -24.6309 -20.7001 -18.5461 -17.8816
   -17.2553 -16.9546 -15.9198 -15.7617 -15.2760 -15.1106 -13.4042 -11.9278
   -11.8665 -11.7469 -10.4057 -10.0284  -9.1916  -8.8772  -3.8346  -3.3213
    -1.2637  -1.1263  -0.8737  -0.2781   0.4226   0.5288   1.5969   1.7363
     1.9078   2.1640   2.3199   2.5594   2.8824   3.2940   3.5157   3.6074
     4.0440   4.9071

     occupation numbers 
     1.0000   1.0000   1.0000   1.0000   1.0000   1.0000   1.0000   1.0000
     1.0000   1.0000   1.0000   1.0000   1.0000   1.0000   1.0000   1.0000
     1.0000   1.0000   1.0000   1.0000   1.0000   1.0000   1.0000   1.0000
     1.0000   1.0000   1.0000   1.0000   1.0000   1.0000   1.0000   1.0000
     1.0000   1.0000   1.0000   1.0000   1.0000   1.0000   1.0000   1.0000
     1.0000   1.0000   1.0000   1.0000   1.0000   1.0000   1.0027   1.0279
     1.0804   0.4204   0.0672   0.0004   0.0000   0.0000   0.0000   0.0000
     0.0000   0.0000

          k = 0.0000-1.4142 0.1864 ( 19832 PWs)   bands (ev):

   -53.9958 -52.7506 -51.6303 -51.6187 -51.5583 -51.5276 -51.4692 -51.3459
   -50.3853 -50.3425 -47.8563 -46.3993 -28.2720 -27.8537 -27.8093 -27.7564
   -27.7145 -27.7081 -27.6105 -27.5703 -24.6310 -20.7001 -18.5463 -17.8820
   -17.2555 -16.9548 -15.9199 -15.7619 -15.2761 -15.1106 -13.4042 -11.9279
   -11.8665 -11.7470 -10.4057 -10.0284  -9.1917  -8.8772  -3.8348  -3.3216
    -1.2637  -1.1264  -0.8738  -0.2782   0.4225   0.5288   1.5968   1.7362
     1.9076   2.1639   2.3198   2.5593   2.8827   3.2935   3.5154   3.6065
     4.0429   4.9250

     occupation numbers 
     1.0000   1.0000   1.0000   1.0000   1.0000   1.0000   1.0000   1.0000
     1.0000   1.0000   1.0000   1.0000   1.0000   1.0000   1.0000   1.0000
     1.0000   1.0000   1.0000   1.0000   1.0000   1.0000   1.0000   1.0000
     1.0000   1.0000   1.0000   1.0000   1.0000   1.0000   1.0000   1.0000
     1.0000   1.0000   1.0000   1.0000   1.0000   1.0000   1.0000   1.0000
     1.0000   1.0000   1.0000   1.0000   1.0000   1.0000   1.0027   1.0278
     1.0804   0.4208   0.0673   0.0004   0.0000   0.0000   0.0000   0.0000
     0.0000   0.0000

          k = 0.0000-1.4142-0.3728 ( 19860 PWs)   bands (ev):

   -53.9959 -52.7506 -51.6305 -51.6189 -51.5583 -51.5278 -51.4692 -51.3461
   -50.3853 -50.3425 -47.8563 -46.3994 -28.2720 -27.8537 -27.8094 -27.7565
   -27.7145 -27.7082 -27.6105 -27.5703 -24.6311 -20.7001 -18.5464 -17.8821
   -17.2556 -16.9548 -15.9200 -15.7620 -15.2761 -15.1107 -13.4042 -11.9279
   -11.8665 -11.7470 -10.4057 -10.0284  -9.1917  -8.8772  -3.8348  -3.3217
    -1.2638  -1.1264  -0.8738  -0.2782   0.4225   0.5288   1.5967   1.7361
     1.9075   2.1638   2.3197   2.5593   2.8828   3.2930   3.5151   3.6057
     4.0418   4.9440

     occupation numbers 
     1.0000   1.0000   1.0000   1.0000   1.0000   1.0000   1.0000   1.0000
     1.0000   1.0000   1.0000   1.0000   1.0000   1.0000   1.0000   1.0000
     1.0000   1.0000   1.0000   1.0000   1.0000   1.0000   1.0000   1.0000
     1.0000   1.0000   1.0000   1.0000   1.0000   1.0000   1.0000   1.0000
     1.0000   1.0000   1.0000   1.0000   1.0000   1.0000   1.0000   1.0000
     1.0000   1.0000   1.0000   1.0000   1.0000   1.0000   1.0027   1.0278
     1.0805   0.4210   0.0674   0.0004   0.0000   0.0000   0.0000   0.0000
     0.0000   0.0000

          k = 0.2500 0.0000 0.0000 ( 19857 PWs)   bands (ev):

   -54.0071 -52.7613 -51.6314 -51.6199 -51.5426 -51.5288 -51.4702 -51.3466
   -50.3723 -50.3405 -47.8586 -46.4020 -28.2271 -27.8405 -27.7853 -27.7522
   -27.6855 -27.6745 -27.6134 -27.5596 -24.6761 -20.7761 -18.5274 -17.9070
   -17.2601 -16.9371 -16.0030 -15.8561 -15.2998 -15.0988 -13.4272 -11.9535
   -11.7735 -11.7170 -10.4613 -10.1747  -9.3198  -8.9629  -3.6553  -3.1777
    -2.4704  -1.8474  -1.5719  -0.4998   0.9842   1.6052   1.7293   1.7918
     2.1905   2.3388   2.4278   2.5511   2.7481   2.7864   2.9614   3.0990
     3.5061   3.9263

     occupation numbers 
     1.0000   1.0000   1.0000   1.0000   1.0000   1.0000   1.0000   1.0000
     1.0000   1.0000   1.0000   1.0000   1.0000   1.0000   1.0000   1.0000
     1.0000   1.0000   1.0000   1.0000   1.0000   1.0000   1.0000   1.0000
     1.0000   1.0000   1.0000   1.0000   1.0000   1.0000   1.0000   1.0000
     1.0000   1.0000   1.0000   1.0000   1.0000   1.0000   1.0000   1.0000
     1.0000   1.0000   1.0000   1.0000   1.0000   1.0032   1.0254   1.0513
     0.3322   0.0499   0.0097   0.0005   0.0000   0.0000   0.0000   0.0000
     0.0000   0.0000

          k = 0.2500 0.0000 0.1864 ( 19876 PWs)   bands (ev):

   -54.0071 -52.7612 -51.6313 -51.6198 -51.5426 -51.5287 -51.4702 -51.3465
   -50.3723 -50.3405 -47.8586 -46.4020 -28.2272 -27.8406 -27.7854 -27.7522
   -27.6856 -27.6745 -27.6136 -27.5598 -24.6761 -20.7761 -18.5274 -17.9069
   -17.2601 -16.9371 -16.0030 -15.8561 -15.2998 -15.0989 -13.4272 -11.9535
   -11.7735 -11.7170 -10.4613 -10.1747  -9.3198  -8.9629  -3.6553  -3.1778
    -2.4704  -1.8474  -1.5719  -0.4998   0.9847   1.6050   1.7320   1.7823
     2.2002   2.3384   2.4275   2.5481   2.7478   2.7882   2.9842   3.0945
     3.4946   3.8645

     occupation numbers 
     1.0000   1.0000   1.0000   1.0000   1.0000   1.0000   1.0000   1.0000
     1.0000   1.0000   1.0000   1.0000   1.0000   1.0000   1.0000   1.0000
     1.0000   1.0000   1.0000   1.0000   1.0000   1.0000   1.0000   1.0000
     1.0000   1.0000   1.0000   1.0000   1.0000   1.0000   1.0000   1.0000
     1.0000   1.0000   1.0000   1.0000   1.0000   1.0000   1.0000   1.0000
     1.0000   1.0000   1.0000   1.0000   1.0000   1.0031   1.0264   1.0469
     0.3027   0.0502   0.0098   0.0006   0.0000   0.0000   0.0000   0.0000
     0.0000   0.0000

          k = 0.2500 0.0000-0.3728 ( 19852 PWs)   bands (ev):

   -54.0071 -52.7612 -51.6314 -51.6199 -51.5426 -51.5288 -51.4702 -51.3466
   -50.3723 -50.3405 -47.8586 -46.4020 -28.2270 -27.8403 -27.7852 -27.7520
   -27.6853 -27.6743 -27.6133 -27.5594 -24.6760 -20.7761 -18.5274 -17.9069
   -17.2600 -16.9370 -16.0030 -15.8561 -15.2998 -15.0989 -13.4272 -11.9535
   -11.7735 -11.7170 -10.4613 -10.1747  -9.3198  -8.9629  -3.6552  -3.1776
    -2.4704  -1.8474  -1.5719  -0.4998   0.9851   1.6050   1.7268   1.7809
     2.2157   2.3426   2.4223   2.5463   2.7488   2.7914   2.9842   3.0755
     3.4906   3.8895

     occupation numbers 
     1.0000   1.0000   1.0000   1.0000   1.0000   1.0000   1.0000   1.0000
     1.0000   1.0000   1.0000   1.0000   1.0000   1.0000   1.0000   1.0000
     1.0000   1.0000   1.0000   1.0000   1.0000   1.0000   1.0000   1.0000
     1.0000   1.0000   1.0000   1.0000   1.0000   1.0000   1.0000   1.0000
     1.0000   1.0000   1.0000   1.0000   1.0000   1.0000   1.0000   1.0000
     1.0000   1.0000   1.0000   1.0000   1.0000   1.0031   1.0246   1.0463
     0.2583   0.0469   0.0109   0.0006   0.0000   0.0000   0.0000   0.0000
     0.0000   0.0000

          k = 0.2500 0.7071 0.0000 ( 19830 PWs)   bands (ev):

   -54.0015 -52.7559 -51.6305 -51.6189 -51.5504 -51.5279 -51.4697 -51.3460
   -50.3785 -50.3418 -47.8574 -46.4007 -28.2496 -27.8441 -27.8004 -27.7525
   -27.7005 -27.6919 -27.6120 -27.5657 -24.6535 -20.7383 -18.5367 -17.8963
   -17.2542 -16.9447 -15.9547 -15.8217 -15.2813 -15.1092 -13.4157 -11.9400
   -11.7951 -11.7586 -10.2928 -10.2466  -9.1053  -9.0798  -3.7510  -3.2489
    -2.0901  -1.5066  -1.3306  -0.0845   0.6259   1.3294   1.7035   1.8495
     2.0199   2.3398   2.4202   2.5357   2.6473   2.9107   3.2341   3.4278
     3.7312   4.0819

     occupation numbers 
     1.0000   1.0000   1.0000   1.0000   1.0000   1.0000   1.0000   1.0000
     1.0000   1.0000   1.0000   1.0000   1.0000   1.0000   1.0000   1.0000
     1.0000   1.0000   1.0000   1.0000   1.0000   1.0000   1.0000   1.0000
     1.0000   1.0000   1.0000   1.0000   1.0000   1.0000   1.0000   1.0000
     1.0000   1.0000   1.0000   1.0000   1.0000   1.0000   1.0000   1.0000
     1.0000   1.0000   1.0000   1.0000   1.0000   1.0000   1.0177   1.0764
     0.9219   0.0491   0.0114   0.0008   0.0000   0.0000   0.0000   0.0000
     0.0000   0.0000

          k = 0.2500 0.7071 0.1864 ( 19836 PWs)   bands (ev):

   -54.0015 -52.7559 -51.6305 -51.6189 -51.5503 -51.5279 -51.4697 -51.3459
   -50.3785 -50.3418 -47.8574 -46.4007 -28.2497 -27.8441 -27.8004 -27.7524
   -27.7005 -27.6919 -27.6119 -27.5657 -24.6535 -20.7383 -18.5367 -17.8962
   -17.2542 -16.9447 -15.9547 -15.8217 -15.2813 -15.1092 -13.4157 -11.9400
   -11.7951 -11.7586 -10.2928 -10.2466  -9.1053  -9.0798  -3.7511  -3.2489
    -2.0901  -1.5066  -1.3306  -0.0845   0.6259   1.3292   1.7034   1.8500
     2.0193   2.3399   2.4210   2.5351   2.6478   2.9025   3.2412   3.4437
     3.7299   4.0643

     occupation numbers 
     1.0000   1.0000   1.0000   1.0000   1.0000   1.0000   1.0000   1.0000
     1.0000   1.0000   1.0000   1.0000   1.0000   1.0000   1.0000   1.0000
     1.0000   1.0000   1.0000   1.0000   1.0000   1.0000   1.0000   1.0000
     1.0000   1.0000   1.0000   1.0000   1.0000   1.0000   1.0000   1.0000
     1.0000   1.0000   1.0000   1.0000   1.0000   1.0000   1.0000   1.0000
     1.0000   1.0000   1.0000   1.0000   1.0000   1.0000   1.0177   1.0765
     0.9234   0.0490   0.0112   0.0008   0.0000   0.0000   0.0000   0.0000
     0.0000   0.0000

          k = 0.2500 0.7071-0.3728 ( 19842 PWs)   bands (ev):

   -54.0015 -52.7559 -51.6307 -51.6191 -51.5504 -51.5280 -51.4697 -51.3461
   -50.3785 -50.3418 -47.8574 -46.4007 -28.2496 -27.8441 -27.8003 -27.7525
   -27.7005 -27.6918 -27.6120 -27.5657 -24.6535 -20.7383 -18.5367 -17.8962
   -17.2542 -16.9448 -15.9548 -15.8217 -15.2814 -15.1093 -13.4157 -11.9400
   -11.7951 -11.7586 -10.2928 -10.2467  -9.1053  -9.0798  -3.7511  -3.2489
    -2.0901  -1.5067  -1.3306  -0.0845   0.6260   1.3292   1.7030   1.8481
     2.0195   2.3429   2.4193   2.5348   2.6518   2.9039   3.2438   3.4292
     3.7368   4.0547

     occupation numbers 
     1.0000   1.0000   1.0000   1.0000   1.0000   1.0000   1.0000   1.0000
     1.0000   1.0000   1.0000   1.0000   1.0000   1.0000   1.0000   1.0000
     1.0000   1.0000   1.0000   1.0000   1.0000   1.0000   1.0000   1.0000
     1.0000   1.0000   1.0000   1.0000   1.0000   1.0000   1.0000   1.0000
     1.0000   1.0000   1.0000   1.0000   1.0000   1.0000   1.0000   1.0000
     1.0000   1.0000   1.0000   1.0000   1.0000   1.0000   1.0176   1.0759
     0.9231   0.0466   0.0116   0.0008   0.0000   0.0000   0.0000   0.0000
     0.0000   0.0000

          k = 0.2500-1.4142 0.0000 ( 19824 PWs)   bands (ev):

   -53.9959 -52.7506 -51.6299 -51.6183 -51.5583 -51.5273 -51.4692 -51.3456
   -50.3853 -50.3425 -47.8563 -46.3993 -28.2720 -27.8537 -27.8094 -27.7564
   -27.7145 -27.7081 -27.6106 -27.5705 -24.6310 -20.7001 -18.5465 -17.8856
   -17.2497 -16.9543 -15.9048 -15.7895 -15.2627 -15.1140 -13.4041 -11.9279
   -11.8665 -11.7470 -10.4057 -10.0284  -9.1917  -8.8772  -3.8348  -3.3229
    -1.2608  -1.1178  -0.8745  -0.2793   0.3978   0.5165   1.5954   1.7672
     1.9162   2.1276   2.3880   2.5708   2.9025   3.2223   3.4429   3.6449
     4.1253   4.9199

     occupation numbers 
     1.0000   1.0000   1.0000   1.0000   1.0000   1.0000   1.0000   1.0000
     1.0000   1.0000   1.0000   1.0000   1.0000   1.0000   1.0000   1.0000
     1.0000   1.0000   1.0000   1.0000   1.0000   1.0000   1.0000   1.0000
     1.0000   1.0000   1.0000   1.0000   1.0000   1.0000   1.0000   1.0000
     1.0000   1.0000   1.0000   1.0000   1.0000   1.0000   1.0000   1.0000
     1.0000   1.0000   1.0000   1.0000   1.0000   1.0000   1.0026   1.0401
     1.0774   0.5531   0.0212   0.0003   0.0000   0.0000   0.0000   0.0000
     0.0000   0.0000

          k = 0.2500-1.4142 0.1864 ( 19794 PWs)   bands (ev):

   -53.9958 -52.7505 -51.6298 -51.6182 -51.5582 -51.5272 -51.4692 -51.3455
   -50.3853 -50.3425 -47.8562 -46.3993 -28.2719 -27.8535 -27.8092 -27.7562
   -27.7143 -27.7079 -27.6104 -27.5702 -24.6310 -20.7001 -18.5463 -17.8853
   -17.2496 -16.9542 -15.9048 -15.7895 -15.2626 -15.1140 -13.4040 -11.9278
   -11.8665 -11.7470 -10.4057 -10.0284  -9.1916  -8.8772  -3.8348  -3.3228
    -1.2608  -1.1178  -0.8745  -0.2793   0.3979   0.5165   1.5954   1.7672
     1.9162   2.1275   2.3880   2.5709   2.9028   3.2220   3.4424   3.6449
     4.1234   4.9390

     occupation numbers 
     1.0000   1.0000   1.0000   1.0000   1.0000   1.0000   1.0000   1.0000
     1.0000   1.0000   1.0000   1.0000   1.0000   1.0000   1.0000   1.0000
     1.0000   1.0000   1.0000   1.0000   1.0000   1.0000   1.0000   1.0000
     1.0000   1.0000   1.0000   1.0000   1.0000   1.0000   1.0000   1.0000
     1.0000   1.0000   1.0000   1.0000   1.0000   1.0000   1.0000   1.0000
     1.0000   1.0000   1.0000   1.0000   1.0000   1.0000   1.0026   1.0401
     1.0774   0.5532   0.0212   0.0003   0.0000   0.0000   0.0000   0.0000
     0.0000   0.0000

          k = 0.2500-1.4142-0.3728 ( 19772 PWs)   bands (ev):

   -53.9958 -52.7505 -51.6298 -51.6182 -51.5582 -51.5272 -51.4692 -51.3455
   -50.3853 -50.3425 -47.8562 -46.3993 -28.2717 -27.8534 -27.8091 -27.7561
   -27.7142 -27.7078 -27.6103 -27.5702 -24.6309 -20.7000 -18.5463 -17.8852
   -17.2497 -16.9542 -15.9048 -15.7895 -15.2626 -15.1139 -13.4040 -11.9278
   -11.8665 -11.7470 -10.4057 -10.0284  -9.1916  -8.8772  -3.8347  -3.3227
    -1.2608  -1.1178  -0.8745  -0.2793   0.3979   0.5165   1.5953   1.7672
     1.9161   2.1276   2.3879   2.5709   2.9028   3.2219   3.4420   3.6445
     4.1228   4.9516

     occupation numbers 
     1.0000   1.0000   1.0000   1.0000   1.0000   1.0000   1.0000   1.0000
     1.0000   1.0000   1.0000   1.0000   1.0000   1.0000   1.0000   1.0000
     1.0000   1.0000   1.0000   1.0000   1.0000   1.0000   1.0000   1.0000
     1.0000   1.0000   1.0000   1.0000   1.0000   1.0000   1.0000   1.0000
     1.0000   1.0000   1.0000   1.0000   1.0000   1.0000   1.0000   1.0000
     1.0000   1.0000   1.0000   1.0000   1.0000   1.0000   1.0026   1.0401
     1.0774   0.5531   0.0212   0.0003   0.0000   0.0000   0.0000   0.0000
     0.0000   0.0000

          k =-0.5000 0.0000 0.0000 ( 19840 PWs)   bands (ev):

   -54.0071 -52.7613 -51.6311 -51.6196 -51.5425 -51.5285 -51.4702 -51.3463
   -50.3723 -50.3405 -47.8586 -46.4020 -28.2270 -27.8407 -27.7853 -27.7524
   -27.6853 -27.6744 -27.6137 -27.5597 -24.6760 -20.7761 -18.5274 -17.9108
   -17.2532 -16.9367 -15.9674 -15.9078 -15.2822 -15.1038 -13.4271 -11.9536
   -11.7731 -11.7173 -10.4613 -10.1747  -9.3198  -8.9629  -3.6555  -3.1786
    -2.4705  -1.8410  -1.5725  -0.5108   0.9873   1.6166   1.7100   1.8572
     2.2550   2.3649   2.3898   2.5166   2.5726   2.7001   2.8654   3.1269
     3.6499   4.1738

     occupation numbers 
     1.0000   1.0000   1.0000   1.0000   1.0000   1.0000   1.0000   1.0000
     1.0000   1.0000   1.0000   1.0000   1.0000   1.0000   1.0000   1.0000
     1.0000   1.0000   1.0000   1.0000   1.0000   1.0000   1.0000   1.0000
     1.0000   1.0000   1.0000   1.0000   1.0000   1.0000   1.0000   1.0000
     1.0000   1.0000   1.0000   1.0000   1.0000   1.0000   1.0000   1.0000
     1.0000   1.0000   1.0000   1.0000   1.0000   1.0040   1.0195   1.0787
     0.1648   0.0321   0.0205   0.0013   0.0003   0.0000   0.0000   0.0000
     0.0000   0.0000

          k =-0.5000 0.0000 0.1864 ( 19856 PWs)   bands (ev):

   -54.0071 -52.7612 -51.6313 -51.6197 -51.5425 -51.5287 -51.4702 -51.3464
   -50.3723 -50.3405 -47.8586 -46.4020 -28.2271 -27.8405 -27.7853 -27.7522
   -27.6855 -27.6744 -27.6134 -27.5596 -24.6761 -20.7761 -18.5274 -17.9107
   -17.2531 -16.9366 -15.9674 -15.9078 -15.2823 -15.1038 -13.4270 -11.9536
   -11.7731 -11.7173 -10.4613 -10.1747  -9.3198  -8.9629  -3.6556  -3.1786
    -2.4705  -1.8410  -1.5725  -0.5109   0.9875   1.6179   1.7065   1.8537
     2.2552   2.3552   2.4117   2.5148   2.5906   2.6967   2.8632   3.1086
     3.6277   4.1391

     occupation numbers 
     1.0000   1.0000   1.0000   1.0000   1.0000   1.0000   1.0000   1.0000
     1.0000   1.0000   1.0000   1.0000   1.0000   1.0000   1.0000   1.0000
     1.0000   1.0000   1.0000   1.0000   1.0000   1.0000   1.0000   1.0000
     1.0000   1.0000   1.0000   1.0000   1.0000   1.0000   1.0000   1.0000
     1.0000   1.0000   1.0000   1.0000   1.0000   1.0000   1.0000   1.0000
     1.0000   1.0000   1.0000   1.0000   1.0000   1.0041   1.0185   1.0777
     0.1644   0.0380   0.0135   0.0014   0.0002   0.0000   0.0000   0.0000
     0.0000   0.0000

          k =-0.5000 0.0000-0.3728 ( 19852 PWs)   bands (ev):

   -54.0071 -52.7613 -51.6316 -51.6200 -51.5426 -51.5291 -51.4702 -51.3467
   -50.3723 -50.3405 -47.8586 -46.4020 -28.2271 -27.8404 -27.7853 -27.7521
   -27.6854 -27.6744 -27.6134 -27.5596 -24.6761 -20.7761 -18.5274 -17.9108
   -17.2532 -16.9367 -15.9675 -15.9079 -15.2824 -15.1040 -13.4270 -11.9536
   -11.7732 -11.7173 -10.4613 -10.1747  -9.3198  -8.9629  -3.6555  -3.1786
    -2.4705  -1.8410  -1.5725  -0.5109   0.9877   1.6193   1.7030   1.8502
     2.2555   2.3485   2.4324   2.5131   2.6085   2.6925   2.8604   3.0908
     3.6035   4.1232

     occupation numbers 
     1.0000   1.0000   1.0000   1.0000   1.0000   1.0000   1.0000   1.0000
     1.0000   1.0000   1.0000   1.0000   1.0000   1.0000   1.0000   1.0000
     1.0000   1.0000   1.0000   1.0000   1.0000   1.0000   1.0000   1.0000
     1.0000   1.0000   1.0000   1.0000   1.0000   1.0000   1.0000   1.0000
     1.0000   1.0000   1.0000   1.0000   1.0000   1.0000   1.0000   1.0000
     1.0000   1.0000   1.0000   1.0000   1.0000   1.0042   1.0176   1.0766
     0.1639   0.0425   0.0089   0.0014   0.0001   0.0000   0.0000   0.0000
     0.0000   0.0000

          k =-0.5000 0.7071 0.0000 ( 19816 PWs)   bands (ev):

   -54.0015 -52.7559 -51.6303 -51.6187 -51.5503 -51.5277 -51.4697 -51.3457
   -50.3785 -50.3418 -47.8574 -46.4007 -28.2495 -27.8440 -27.8003 -27.7524
   -27.7005 -27.6918 -27.6120 -27.5657 -24.6534 -20.7382 -18.5367 -17.8997
   -17.2479 -16.9443 -15.9219 -15.8684 -15.2661 -15.1134 -13.4155 -11.9400
   -11.7948 -11.7589 -10.2928 -10.2466  -9.1053  -9.0798  -3.7511  -3.2502
    -2.0899  -1.4992  -1.3307  -0.1043   0.6352   1.3223   1.7103   1.8207
     2.0723   2.2943   2.4696   2.5720   2.6840   2.8809   3.0923   3.4711
     3.6872   4.0709

     occupation numbers 
     1.0000   1.0000   1.0000   1.0000   1.0000   1.0000   1.0000   1.0000
     1.0000   1.0000   1.0000   1.0000   1.0000   1.0000   1.0000   1.0000
     1.0000   1.0000   1.0000   1.0000   1.0000   1.0000   1.0000   1.0000
     1.0000   1.0000   1.0000   1.0000   1.0000   1.0000   1.0000   1.0000
     1.0000   1.0000   1.0000   1.0000   1.0000   1.0000   1.0000   1.0000
     1.0000   1.0000   1.0000   1.0000   1.0000   1.0000   1.0196   1.0648
     0.7580   0.0980   0.0040   0.0003   0.0000   0.0000   0.0000   0.0000
     0.0000   0.0000

          k =-0.5000 0.7071 0.1864 ( 19842 PWs)   bands (ev):

   -54.0015 -52.7559 -51.6305 -51.6188 -51.5503 -51.5279 -51.4697 -51.3459
   -50.3785 -50.3418 -47.8575 -46.4007 -28.2497 -27.8441 -27.8004 -27.7525
   -27.7006 -27.6919 -27.6120 -27.5658 -24.6535 -20.7382 -18.5367 -17.8998
   -17.2480 -16.9444 -15.9220 -15.8685 -15.2662 -15.1134 -13.4155 -11.9400
   -11.7948 -11.7590 -10.2928 -10.2466  -9.1053  -9.0798  -3.7511  -3.2503
    -2.0900  -1.4992  -1.3307  -0.1043   0.6352   1.3222   1.7098   1.8204
     2.0724   2.2937   2.4700   2.5715   2.6831   2.8901   3.0999   3.4574
     3.6700   4.0864

     occupation numbers 
     1.0000   1.0000   1.0000   1.0000   1.0000   1.0000   1.0000   1.0000
     1.0000   1.0000   1.0000   1.0000   1.0000   1.0000   1.0000   1.0000
     1.0000   1.0000   1.0000   1.0000   1.0000   1.0000   1.0000   1.0000
     1.0000   1.0000   1.0000   1.0000   1.0000   1.0000   1.0000   1.0000
     1.0000   1.0000   1.0000   1.0000   1.0000   1.0000   1.0000   1.0000
     1.0000   1.0000   1.0000   1.0000   1.0000   1.0000   1.0194   1.0646
     0.7576   0.0988   0.0039   0.0003   0.0000   0.0000   0.0000   0.0000
     0.0000   0.0000

          k =-0.5000 0.7071-0.3728 ( 19796 PWs)   bands (ev):

   -54.0014 -52.7559 -51.6300 -51.6184 -51.5502 -51.5274 -51.4697 -51.3455
   -50.3785 -50.3418 -47.8574 -46.4006 -28.2496 -27.8439 -27.8003 -27.7523
   -27.7004 -27.6918 -27.6116 -27.5655 -24.6534 -20.7382 -18.5366 -17.8996
   -17.2478 -16.9442 -15.9218 -15.8683 -15.2660 -15.1133 -13.4155 -11.9400
   -11.7948 -11.7589 -10.2928 -10.2466  -9.1053  -9.0798  -3.7510  -3.2502
    -2.0899  -1.4992  -1.3307  -0.1043   0.6353   1.3224   1.7091   1.8196
     2.0720   2.2945   2.4695   2.5691   2.6848   2.8943   3.1154   3.4429
     3.6456   4.0963

     occupation numbers 
     1.0000   1.0000   1.0000   1.0000   1.0000   1.0000   1.0000   1.0000
     1.0000   1.0000   1.0000   1.0000   1.0000   1.0000   1.0000   1.0000
     1.0000   1.0000   1.0000   1.0000   1.0000   1.0000   1.0000   1.0000
     1.0000   1.0000   1.0000   1.0000   1.0000   1.0000   1.0000   1.0000
     1.0000   1.0000   1.0000   1.0000   1.0000   1.0000   1.0000   1.0000
     1.0000   1.0000   1.0000   1.0000   1.0000   1.0000   1.0192   1.0643
     0.7588   0.0977   0.0040   0.0003   0.0000   0.0000   0.0000   0.0000
     0.0000   0.0000

          k =-0.5000-1.4142 0.0000 ( 19768 PWs)   bands (ev):

   -53.9958 -52.7505 -51.6288 -51.6173 -51.5581 -51.5263 -51.4692 -51.3447
   -50.3853 -50.3425 -47.8563 -46.3993 -28.2719 -27.8536 -27.8093 -27.7563
   -27.7144 -27.7080 -27.6103 -27.5702 -24.6309 -20.7000 -18.5463 -17.8885
   -17.2437 -16.9536 -15.8764 -15.8295 -15.2492 -15.1176 -13.4039 -11.9278
   -11.8664 -11.7470 -10.4057 -10.0283  -9.1917  -8.8772  -3.8348  -3.3240
    -1.2580  -1.1089  -0.8753  -0.2805   0.3683   0.5115   1.5936   1.7784
     1.9737   2.0537   2.4963   2.5637   2.9338   3.1244   3.3777   3.6924
     4.1901   4.9414

     occupation numbers 
     1.0000   1.0000   1.0000   1.0000   1.0000   1.0000   1.0000   1.0000
     1.0000   1.0000   1.0000   1.0000   1.0000   1.0000   1.0000   1.0000
     1.0000   1.0000   1.0000   1.0000   1.0000   1.0000   1.0000   1.0000
     1.0000   1.0000   1.0000   1.0000   1.0000   1.0000   1.0000   1.0000
     1.0000   1.0000   1.0000   1.0000   1.0000   1.0000   1.0000   1.0000
     1.0000   1.0000   1.0000   1.0000   1.0000   1.0000   1.0025   1.0451
     1.0205   0.8213   0.0021   0.0004   0.0000   0.0000   0.0000   0.0000
     0.0000   0.0000

          k =-0.5000-1.4142 0.1864 ( 19784 PWs)   bands (ev):

   -53.9958 -52.7505 -51.6291 -51.6175 -51.5581 -51.5266 -51.4692 -51.3448
   -50.3853 -50.3425 -47.8563 -46.3993 -28.2719 -27.8536 -27.8093 -27.7563
   -27.7144 -27.7081 -27.6105 -27.5704 -24.6309 -20.7000 -18.5464 -17.8886
   -17.2438 -16.9537 -15.8765 -15.8296 -15.2493 -15.1177 -13.4039 -11.9278
   -11.8664 -11.7471 -10.4057 -10.0284  -9.1917  -8.8772  -3.8348  -3.3241
    -1.2580  -1.1089  -0.8753  -0.2806   0.3683   0.5115   1.5935   1.7784
     1.9736   2.0536   2.4962   2.5636   2.9338   3.1244   3.3774   3.6924
     4.1889   4.9515

     occupation numbers 
     1.0000   1.0000   1.0000   1.0000   1.0000   1.0000   1.0000   1.0000
     1.0000   1.0000   1.0000   1.0000   1.0000   1.0000   1.0000   1.0000
     1.0000   1.0000   1.0000   1.0000   1.0000   1.0000   1.0000   1.0000
     1.0000   1.0000   1.0000   1.0000   1.0000   1.0000   1.0000   1.0000
     1.0000   1.0000   1.0000   1.0000   1.0000   1.0000   1.0000   1.0000
     1.0000   1.0000   1.0000   1.0000   1.0000   1.0000   1.0025   1.0451
     1.0206   0.8216   0.0021   0.0004   0.0000   0.0000   0.0000   0.0000
     0.0000   0.0000

          k =-0.5000-1.4142-0.3728 ( 19760 PWs)   bands (ev):

   -53.9958 -52.7505 -51.6293 -51.6176 -51.5581 -51.5267 -51.4692 -51.3450
   -50.3853 -50.3425 -47.8562 -46.3992 -28.2718 -27.8533 -27.8089 -27.7559
   -27.7141 -27.7078 -27.6101 -27.5700 -24.6309 -20.7000 -18.5464 -17.8886
   -17.2438 -16.9537 -15.8765 -15.8297 -15.2493 -15.1176 -13.4039 -11.9278
   -11.8664 -11.7470 -10.4057 -10.0283  -9.1916  -8.8772  -3.8348  -3.3239
    -1.2580  -1.1089  -0.8753  -0.2806   0.3683   0.5115   1.5935   1.7784
     1.9736   2.0535   2.4961   2.5635   2.9338   3.1243   3.3771   3.6924
     4.1876   4.9616

     occupation numbers 
     1.0000   1.0000   1.0000   1.0000   1.0000   1.0000   1.0000   1.0000
     1.0000   1.0000   1.0000   1.0000   1.0000   1.0000   1.0000   1.0000
     1.0000   1.0000   1.0000   1.0000   1.0000   1.0000   1.0000   1.0000
     1.0000   1.0000   1.0000   1.0000   1.0000   1.0000   1.0000   1.0000
     1.0000   1.0000   1.0000   1.0000   1.0000   1.0000   1.0000   1.0000
     1.0000   1.0000   1.0000   1.0000   1.0000   1.0000   1.0025   1.0451
     1.0207   0.8219   0.0021   0.0004   0.0000   0.0000   0.0000   0.0000
     0.0000   0.0000

          k = 0.0000-0.7071 0.1864 ( 19830 PWs)   bands (ev):

   -54.0015 -52.7559 -51.6307 -51.6191 -51.5504 -51.5280 -51.4697 -51.3461
   -50.3785 -50.3418 -47.8574 -46.4007 -28.2496 -27.8440 -27.8003 -27.7524
   -27.7006 -27.6917 -27.6121 -27.5658 -24.6535 -20.7383 -18.5367 -17.8925
   -17.2607 -16.9452 -15.9711 -15.7902 -15.2980 -15.1045 -13.4158 -11.9400
   -11.7955 -11.7583 -10.2928 -10.2467  -9.1053  -9.0798  -3.7508  -3.2479
    -2.0903  -1.5151  -1.3296  -0.0669   0.6285   1.3339   1.6773   1.9322
     1.9684   2.2910   2.3666   2.5385   2.6391   2.9541   3.2256   3.5222
     3.8990   4.1127

     occupation numbers 
     1.0000   1.0000   1.0000   1.0000   1.0000   1.0000   1.0000   1.0000
     1.0000   1.0000   1.0000   1.0000   1.0000   1.0000   1.0000   1.0000
     1.0000   1.0000   1.0000   1.0000   1.0000   1.0000   1.0000   1.0000
     1.0000   1.0000   1.0000   1.0000   1.0000   1.0000   1.0000   1.0000
     1.0000   1.0000   1.0000   1.0000   1.0000   1.0000   1.0000   1.0000
     1.0000   1.0000   1.0000   1.0000   1.0000   1.0000   1.0118   1.0683
     1.0287   0.1026   0.0312   0.0007   0.0000   0.0000   0.0000   0.0000
     0.0000   0.0000

          k =-0.2500 0.0000 0.1864 ( 19876 PWs)   bands (ev):

   -54.0071 -52.7612 -51.6313 -51.6198 -51.5426 -51.5287 -51.4702 -51.3465
   -50.3723 -50.3405 -47.8586 -46.4020 -28.2272 -27.8406 -27.7854 -27.7522
   -27.6856 -27.6745 -27.6136 -27.5598 -24.6761 -20.7761 -18.5274 -17.9069
   -17.2601 -16.9371 -16.0030 -15.8561 -15.2998 -15.0989 -13.4272 -11.9535
   -11.7735 -11.7170 -10.4613 -10.1747  -9.3198  -8.9629  -3.6553  -3.1778
    -2.4704  -1.8474  -1.5719  -0.4998   0.9846   1.6052   1.7247   1.7893
     2.2065   2.3427   2.4225   2.5493   2.7489   2.7907   2.9596   3.0808
     3.5037   3.9582

     occupation numbers 
     1.0000   1.0000   1.0000   1.0000   1.0000   1.0000   1.0000   1.0000
     1.0000   1.0000   1.0000   1.0000   1.0000   1.0000   1.0000   1.0000
     1.0000   1.0000   1.0000   1.0000   1.0000   1.0000   1.0000   1.0000
     1.0000   1.0000   1.0000   1.0000   1.0000   1.0000   1.0000   1.0000
     1.0000   1.0000   1.0000   1.0000   1.0000   1.0000   1.0000   1.0000
     1.0000   1.0000   1.0000   1.0000   1.0000   1.0032   1.0239   1.0502
     0.2841   0.0468   0.0108   0.0006   0.0000   0.0000   0.0000   0.0000
     0.0000   0.0000

          k =-0.2500 0.7071 0.0000 ( 19830 PWs)   bands (ev):

   -54.0015 -52.7559 -51.6305 -51.6190 -51.5504 -51.5279 -51.4697 -51.3460
   -50.3785 -50.3418 -47.8575 -46.4007 -28.2497 -27.8441 -27.8004 -27.7525
   -27.7005 -27.6919 -27.6120 -27.5657 -24.6534 -20.7383 -18.5367 -17.8961
   -17.2544 -16.9448 -15.9532 -15.8229 -15.2826 -15.1081 -13.4157 -11.9400
   -11.7951 -11.7587 -10.2928 -10.2467  -9.1053  -9.0798  -3.7509  -3.2493
    -2.0901  -1.5078  -1.3296  -0.0868   0.6366   1.3277   1.7053   1.8399
     2.0643   2.2677   2.3899   2.5878   2.6058   2.9734   3.2011   3.4483
     3.7485   4.0610

     occupation numbers 
     1.0000   1.0000   1.0000   1.0000   1.0000   1.0000   1.0000   1.0000
     1.0000   1.0000   1.0000   1.0000   1.0000   1.0000   1.0000   1.0000
     1.0000   1.0000   1.0000   1.0000   1.0000   1.0000   1.0000   1.0000
     1.0000   1.0000   1.0000   1.0000   1.0000   1.0000   1.0000   1.0000
     1.0000   1.0000   1.0000   1.0000   1.0000   1.0000   1.0000   1.0000
     1.0000   1.0000   1.0000   1.0000   1.0000   1.0000   1.0182   1.0729
     0.7856   0.1404   0.0204   0.0002   0.0001   0.0000   0.0000   0.0000
     0.0000   0.0000

          k =-0.2500-0.7071 0.1864 ( 19836 PWs)   bands (ev):

   -54.0015 -52.7559 -51.6305 -51.6189 -51.5503 -51.5279 -51.4697 -51.3459
   -50.3785 -50.3418 -47.8574 -46.4007 -28.2497 -27.8441 -27.8004 -27.7524
   -27.7006 -27.6919 -27.6119 -27.5657 -24.6535 -20.7383 -18.5367 -17.8962
   -17.2542 -16.9447 -15.9547 -15.8217 -15.2813 -15.1092 -13.4157 -11.9400
   -11.7951 -11.7586 -10.2928 -10.2466  -9.1053  -9.0798  -3.7511  -3.2489
    -2.0901  -1.5067  -1.3306  -0.0845   0.6260   1.3294   1.7031   1.8476
     2.0200   2.3428   2.4185   2.5354   2.6513   2.9123   3.2382   3.4104
     3.7412   4.0695

     occupation numbers 
     1.0000   1.0000   1.0000   1.0000   1.0000   1.0000   1.0000   1.0000
     1.0000   1.0000   1.0000   1.0000   1.0000   1.0000   1.0000   1.0000
     1.0000   1.0000   1.0000   1.0000   1.0000   1.0000   1.0000   1.0000
     1.0000   1.0000   1.0000   1.0000   1.0000   1.0000   1.0000   1.0000
     1.0000   1.0000   1.0000   1.0000   1.0000   1.0000   1.0000   1.0000
     1.0000   1.0000   1.0000   1.0000   1.0000   1.0000   1.0176   1.0757
     0.9215   0.0467   0.0118   0.0008   0.0000   0.0000   0.0000   0.0000
     0.0000   0.0000

          k =-0.2500 0.7071-0.1864 ( 19836 PWs)   bands (ev):

   -54.0015 -52.7559 -51.6305 -51.6189 -51.5504 -51.5279 -51.4697 -51.3460
   -50.3785 -50.3418 -47.8574 -46.4007 -28.2497 -27.8441 -27.8004 -27.7525
   -27.7006 -27.6919 -27.6119 -27.5657 -24.6534 -20.7383 -18.5367 -17.8961
   -17.2544 -16.9447 -15.9532 -15.8229 -15.2826 -15.1081 -13.4157 -11.9400
   -11.7951 -11.7587 -10.2928 -10.2467  -9.1053  -9.0798  -3.7509  -3.2493
    -2.0901  -1.5078  -1.3296  -0.0868   0.6368   1.3276   1.7052   1.8391
     2.0626   2.2668   2.3907   2.5876   2.6092   2.9731   3.2065   3.4505
     3.7471   4.0613

     occupation numbers 
     1.0000   1.0000   1.0000   1.0000   1.0000   1.0000   1.0000   1.0000
     1.0000   1.0000   1.0000   1.0000   1.0000   1.0000   1.0000   1.0000
     1.0000   1.0000   1.0000   1.0000   1.0000   1.0000   1.0000   1.0000
     1.0000   1.0000   1.0000   1.0000   1.0000   1.0000   1.0000   1.0000
     1.0000   1.0000   1.0000   1.0000   1.0000   1.0000   1.0000   1.0000
     1.0000   1.0000   1.0000   1.0000   1.0000   1.0000   1.0182   1.0726
     0.7914   0.1420   0.0201   0.0002   0.0001   0.0000   0.0000   0.0000
     0.0000   0.0000

          k = 0.2500-0.7071-0.1864 ( 19836 PWs)   bands (ev):

   -54.0015 -52.7559 -51.6305 -51.6189 -51.5503 -51.5279 -51.4697 -51.3460
   -50.3785 -50.3418 -47.8574 -46.4007 -28.2497 -27.8441 -27.8004 -27.7524
   -27.7005 -27.6919 -27.6119 -27.5657 -24.6534 -20.7383 -18.5367 -17.8961
   -17.2544 -16.9447 -15.9532 -15.8229 -15.2826 -15.1081 -13.4157 -11.9400
   -11.7951 -11.7587 -10.2928 -10.2467  -9.1053  -9.0798  -3.7509  -3.2493
    -2.0901  -1.5078  -1.3296  -0.0868   0.6367   1.3276   1.7051   1.8388
     2.0656   2.2679   2.3907   2.5842   2.6094   2.9794   3.1976   3.4402
     3.7446   4.0632

     occupation numbers 
     1.0000   1.0000   1.0000   1.0000   1.0000   1.0000   1.0000   1.0000
     1.0000   1.0000   1.0000   1.0000   1.0000   1.0000   1.0000   1.0000
     1.0000   1.0000   1.0000   1.0000   1.0000   1.0000   1.0000   1.0000
     1.0000   1.0000   1.0000   1.0000   1.0000   1.0000   1.0000   1.0000
     1.0000   1.0000   1.0000   1.0000   1.0000   1.0000   1.0000   1.0000
     1.0000   1.0000   1.0000   1.0000   1.0000   1.0000   1.0182   1.0725
     0.7811   0.1400   0.0202   0.0002   0.0001   0.0000   0.0000   0.0000
     0.0000   0.0000

          k =-0.2500 0.7071 0.3728 ( 19842 PWs)   bands (ev):

   -54.0015 -52.7559 -51.6306 -51.6191 -51.5504 -51.5280 -51.4697 -51.3461
   -50.3785 -50.3418 -47.8574 -46.4007 -28.2496 -27.8441 -27.8003 -27.7525
   -27.7005 -27.6918 -27.6120 -27.5657 -24.6535 -20.7383 -18.5367 -17.8961
   -17.2545 -16.9448 -15.9533 -15.8229 -15.2826 -15.1082 -13.4157 -11.9400
   -11.7951 -11.7587 -10.2928 -10.2467  -9.1053  -9.0798  -3.7508  -3.2493
    -2.0901  -1.5078  -1.3296  -0.0868   0.6368   1.3275   1.7050   1.8380
     2.0639   2.2670   2.3914   2.5845   2.6123   2.9794   3.2013   3.4460
     3.7383   4.0665

     occupation numbers 
     1.0000   1.0000   1.0000   1.0000   1.0000   1.0000   1.0000   1.0000
     1.0000   1.0000   1.0000   1.0000   1.0000   1.0000   1.0000   1.0000
     1.0000   1.0000   1.0000   1.0000   1.0000   1.0000   1.0000   1.0000
     1.0000   1.0000   1.0000   1.0000   1.0000   1.0000   1.0000   1.0000
     1.0000   1.0000   1.0000   1.0000   1.0000   1.0000   1.0000   1.0000
     1.0000   1.0000   1.0000   1.0000   1.0000   1.0000   1.0181   1.0721
     0.7869   0.1417   0.0199   0.0002   0.0001   0.0000   0.0000   0.0000
     0.0000   0.0000

          k =-0.2500 1.4142 0.1864 ( 19794 PWs)   bands (ev):

   -53.9958 -52.7505 -51.6298 -51.6182 -51.5582 -51.5272 -51.4692 -51.3455
   -50.3853 -50.3425 -47.8562 -46.3993 -28.2719 -27.8535 -27.8092 -27.7562
   -27.7143 -27.7079 -27.6104 -27.5702 -24.6310 -20.7001 -18.5463 -17.8853
   -17.2496 -16.9542 -15.9048 -15.7895 -15.2626 -15.1140 -13.4040 -11.9278
   -11.8665 -11.7470 -10.4057 -10.0284  -9.1916  -8.8772  -3.8348  -3.3228
    -1.2608  -1.1178  -0.8745  -0.2793   0.3979   0.5165   1.5954   1.7672
     1.9161   2.1276   2.3879   2.5709   2.9025   3.2222   3.4425   3.6446
     4.1246   4.9319

     occupation numbers 
     1.0000   1.0000   1.0000   1.0000   1.0000   1.0000   1.0000   1.0000
     1.0000   1.0000   1.0000   1.0000   1.0000   1.0000   1.0000   1.0000
     1.0000   1.0000   1.0000   1.0000   1.0000   1.0000   1.0000   1.0000
     1.0000   1.0000   1.0000   1.0000   1.0000   1.0000   1.0000   1.0000
     1.0000   1.0000   1.0000   1.0000   1.0000   1.0000   1.0000   1.0000
     1.0000   1.0000   1.0000   1.0000   1.0000   1.0000   1.0026   1.0401
     1.0774   0.5528   0.0212   0.0003   0.0000   0.0000   0.0000   0.0000
     0.0000   0.0000

          k = 0.5000-0.7071 0.1864 ( 19842 PWs)   bands (ev):

   -54.0015 -52.7559 -51.6304 -51.6188 -51.5503 -51.5279 -51.4697 -51.3459
   -50.3785 -50.3418 -47.8575 -46.4007 -28.2497 -27.8441 -27.8004 -27.7526
   -27.7006 -27.6919 -27.6119 -27.5657 -24.6535 -20.7382 -18.5367 -17.8998
   -17.2480 -16.9444 -15.9220 -15.8685 -15.2662 -15.1134 -13.4155 -11.9400
   -11.7948 -11.7590 -10.2928 -10.2466  -9.1053  -9.0798  -3.7511  -3.2503
    -2.0900  -1.4992  -1.3307  -0.1043   0.6353   1.3224   1.7095   1.8198
     2.0718   2.2950   2.4691   2.5695   2.6857   2.8850   3.1074   3.4545
     3.6657   4.0794

     occupation numbers 
     1.0000   1.0000   1.0000   1.0000   1.0000   1.0000   1.0000   1.0000
     1.0000   1.0000   1.0000   1.0000   1.0000   1.0000   1.0000   1.0000
     1.0000   1.0000   1.0000   1.0000   1.0000   1.0000   1.0000   1.0000
     1.0000   1.0000   1.0000   1.0000   1.0000   1.0000   1.0000   1.0000
     1.0000   1.0000   1.0000   1.0000   1.0000   1.0000   1.0000   1.0000
     1.0000   1.0000   1.0000   1.0000   1.0000   1.0000   1.0194   1.0644
     0.7595   0.0970   0.0040   0.0003   0.0000   0.0000   0.0000   0.0000
     0.0000   0.0000

 ------ SPIN DOWN ----------


          k = 0.0000 0.0000 0.0000 ( 19909 PWs)   bands (ev):

   -54.0117 -52.7793 -51.6074 -51.5475 -51.4701 -51.3513 -51.3155 -51.2661
   -50.3886 -50.3526 -47.8622 -46.4172 -28.2103 -27.6761 -27.6450 -27.5617
   -27.2116 -27.1725 -27.1295 -27.1129 -24.6826 -20.7516 -18.2586 -17.5875
   -16.8942 -16.5741 -15.8259 -15.6302 -14.9945 -14.7744 -13.4235 -11.9745
   -11.7826 -11.7397 -10.4620 -10.1757  -9.3334  -8.9759  -3.6394  -3.1570
    -2.4282  -1.7820  -1.5550  -0.3853   1.1158   1.8428   2.0090   2.2495
     2.6619   2.6943   2.8918   3.0046   3.1972   3.3943   3.4439   3.5583
     3.7223   3.9644

     occupation numbers 
     1.0000   1.0000   1.0000   1.0000   1.0000   1.0000   1.0000   1.0000
     1.0000   1.0000   1.0000   1.0000   1.0000   1.0000   1.0000   1.0000
     1.0000   1.0000   1.0000   1.0000   1.0000   1.0000   1.0000   1.0000
     1.0000   1.0000   1.0000   1.0000   1.0000   1.0000   1.0000   1.0000
     1.0000   1.0000   1.0000   1.0000   1.0000   1.0000   1.0000   1.0000
     1.0000   1.0000   1.0000   1.0000   1.0000   1.0740   0.9494   0.1763
     0.0000   0.0000   0.0000   0.0000   0.0000   0.0000   0.0000   0.0000
     0.0000   0.0000

          k = 0.0000 0.0000 0.1864 ( 19860 PWs)   bands (ev):

   -54.0116 -52.7793 -51.6071 -51.5475 -51.4701 -51.3510 -51.3152 -51.2657
   -50.3886 -50.3526 -47.8622 -46.4171 -28.2101 -27.6760 -27.6448 -27.5615
   -27.2114 -27.1723 -27.1293 -27.1127 -24.6826 -20.7516 -18.2584 -17.5873
   -16.8943 -16.5742 -15.8257 -15.6301 -14.9944 -14.7743 -13.4235 -11.9745
   -11.7826 -11.7396 -10.4620 -10.1757  -9.3334  -8.9759  -3.6394  -3.1568
    -2.4281  -1.7820  -1.5550  -0.3852   1.1163   1.8394   2.0112   2.2461
     2.6656   2.6980   2.8943   2.9995   3.2011   3.3928   3.4568   3.5464
     3.7496   3.9336

     occupation numbers 
     1.0000   1.0000   1.0000   1.0000   1.0000   1.0000   1.0000   1.0000
     1.0000   1.0000   1.0000   1.0000   1.0000   1.0000   1.0000   1.0000
     1.0000   1.0000   1.0000   1.0000   1.0000   1.0000   1.0000   1.0000
     1.0000   1.0000   1.0000   1.0000   1.0000   1.0000   1.0000   1.0000
     1.0000   1.0000   1.0000   1.0000   1.0000   1.0000   1.0000   1.0000
     1.0000   1.0000   1.0000   1.0000   1.0000   1.0727   0.9441   0.1836
     0.0000   0.0000   0.0000   0.0000   0.0000   0.0000   0.0000   0.0000
     0.0000   0.0000

          k = 0.0000 0.0000-0.3728 ( 19930 PWs)   bands (ev):

   -54.0117 -52.7793 -51.6071 -51.5475 -51.4702 -51.3510 -51.3152 -51.2658
   -50.3886 -50.3526 -47.8623 -46.4172 -28.2102 -27.6764 -27.6450 -27.5619
   -27.2119 -27.1727 -27.1295 -27.1131 -24.6826 -20.7516 -18.2583 -17.5871
   -16.8946 -16.5743 -15.8259 -15.6302 -14.9944 -14.7744 -13.4235 -11.9746
   -11.7826 -11.7397 -10.4620 -10.1757  -9.3334  -8.9759  -3.6395  -3.1570
    -2.4282  -1.7820  -1.5551  -0.3852   1.1168   1.8360   2.0133   2.2428
     2.6673   2.7034   2.8974   2.9938   3.2043   3.3924   3.4725   3.5368
     3.7699   3.8987

     occupation numbers 
     1.0000   1.0000   1.0000   1.0000   1.0000   1.0000   1.0000   1.0000
     1.0000   1.0000   1.0000   1.0000   1.0000   1.0000   1.0000   1.0000
     1.0000   1.0000   1.0000   1.0000   1.0000   1.0000   1.0000   1.0000
     1.0000   1.0000   1.0000   1.0000   1.0000   1.0000   1.0000   1.0000
     1.0000   1.0000   1.0000   1.0000   1.0000   1.0000   1.0000   1.0000
     1.0000   1.0000   1.0000   1.0000   1.0000   1.0713   0.9388   0.1908
     0.0000   0.0000   0.0000   0.0000   0.0000   0.0000   0.0000   0.0000
     0.0000   0.0000

          k = 0.0000 0.7071 0.0000 ( 19813 PWs)   bands (ev):

   -54.0060 -52.7739 -51.6062 -51.5553 -51.4696 -51.3504 -51.3143 -51.2648
   -50.3951 -50.3536 -47.8610 -46.4158 -28.2324 -27.6736 -27.6611 -27.5642
   -27.2124 -27.1865 -27.1477 -27.1177 -24.6600 -20.7147 -18.2776 -17.5779
   -16.8883 -16.5762 -15.7931 -15.5998 -14.9714 -14.7719 -13.4121 -11.9615
   -11.8151 -11.7666 -10.2934 -10.2474  -9.1189  -9.0927  -3.7307  -3.2243
    -2.0479  -1.4501  -1.3057   0.0436   0.7656   1.4280   2.0396   2.3425
     2.6207   2.7629   2.9101   2.9880   3.0741   3.3479   3.5965   3.7444
     4.2351   4.4016

     occupation numbers 
     1.0000   1.0000   1.0000   1.0000   1.0000   1.0000   1.0000   1.0000
     1.0000   1.0000   1.0000   1.0000   1.0000   1.0000   1.0000   1.0000
     1.0000   1.0000   1.0000   1.0000   1.0000   1.0000   1.0000   1.0000
     1.0000   1.0000   1.0000   1.0000   1.0000   1.0000   1.0000   1.0000
     1.0000   1.0000   1.0000   1.0000   1.0000   1.0000   1.0000   1.0000
     1.0000   1.0000   1.0000   1.0000   1.0000   1.0000   0.8658   0.0470
     0.0001   0.0000   0.0000   0.0000   0.0000   0.0000   0.0000   0.0000
     0.0000   0.0000

          k = 0.0000 0.7071 0.1864 ( 19830 PWs)   bands (ev):

   -54.0060 -52.7739 -51.6063 -51.5553 -51.4697 -51.3504 -51.3144 -51.2649
   -50.3951 -50.3536 -47.8610 -46.4158 -28.2324 -27.6736 -27.6611 -27.5642
   -27.2124 -27.1865 -27.1477 -27.1177 -24.6600 -20.7147 -18.2776 -17.5778
   -16.8884 -16.5763 -15.7931 -15.5998 -14.9714 -14.7720 -13.4121 -11.9615
   -11.8151 -11.7666 -10.2934 -10.2474  -9.1189  -9.0927  -3.7307  -3.2243
    -2.0479  -1.4501  -1.3057   0.0436   0.7656   1.4279   2.0396   2.3444
     2.6148   2.7657   2.9094   2.9859   3.0791   3.3337   3.6237   3.7347
     4.2563   4.3921

     occupation numbers 
     1.0000   1.0000   1.0000   1.0000   1.0000   1.0000   1.0000   1.0000
     1.0000   1.0000   1.0000   1.0000   1.0000   1.0000   1.0000   1.0000
     1.0000   1.0000   1.0000   1.0000   1.0000   1.0000   1.0000   1.0000
     1.0000   1.0000   1.0000   1.0000   1.0000   1.0000   1.0000   1.0000
     1.0000   1.0000   1.0000   1.0000   1.0000   1.0000   1.0000   1.0000
     1.0000   1.0000   1.0000   1.0000   1.0000   1.0000   0.8658   0.0455
     0.0001   0.0000   0.0000   0.0000   0.0000   0.0000   0.0000   0.0000
     0.0000   0.0000

          k = 0.0000 0.7071-0.3728 ( 19850 PWs)   bands (ev):

   -54.0060 -52.7739 -51.6062 -51.5553 -51.4697 -51.3504 -51.3143 -51.2649
   -50.3951 -50.3536 -47.8610 -46.4158 -28.2324 -27.6736 -27.6612 -27.5642
   -27.2125 -27.1865 -27.1477 -27.1177 -24.6600 -20.7147 -18.2777 -17.5779
   -16.8883 -16.5762 -15.7931 -15.5998 -14.9715 -14.7720 -13.4121 -11.9615
   -11.8151 -11.7666 -10.2934 -10.2474  -9.1189  -9.0927  -3.7307  -3.2243
    -2.0479  -1.4501  -1.3058   0.0436   0.7658   1.4277   2.0398   2.3417
     2.6118   2.7696   2.9099   2.9844   3.0821   3.3334   3.6377   3.7375
     4.2593   4.3711

     occupation numbers 
     1.0000   1.0000   1.0000   1.0000   1.0000   1.0000   1.0000   1.0000
[...]
     1.0000   1.0000   1.0000   1.0000   1.0000   1.0000   0.6998   0.1141
     0.0000   0.0000   0.0000   0.0000   0.0000   0.0000   0.0000   0.0000
     0.0000   0.0000

          k =-0.2500 0.7071-0.1864 ( 19836 PWs)   bands (ev):

   -54.0060 -52.7739 -51.6061 -51.5553 -51.4696 -51.3503 -51.3143 -51.2647
   -50.3951 -50.3536 -47.8610 -46.4158 -28.2324 -27.6735 -27.6612 -27.5641
   -27.2124 -27.1866 -27.1478 -27.1177 -24.6600 -20.7147 -18.2776 -17.5812
   -16.8822 -16.5755 -15.7833 -15.6206 -14.9631 -14.7731 -13.4119 -11.9615
   -11.8149 -11.7669 -10.2934 -10.2474  -9.1189  -9.0927  -3.7307  -3.2255
    -2.0478  -1.4439  -1.3059   0.0263   0.7769   1.4194   2.0743   2.3175
     2.5306   2.8645   2.9158   3.0136   3.1197   3.3496   3.5249   3.8075
     3.9358   4.3316

     occupation numbers 
     1.0000   1.0000   1.0000   1.0000   1.0000   1.0000   1.0000   1.0000
     1.0000   1.0000   1.0000   1.0000   1.0000   1.0000   1.0000   1.0000
     1.0000   1.0000   1.0000   1.0000   1.0000   1.0000   1.0000   1.0000
     1.0000   1.0000   1.0000   1.0000   1.0000   1.0000   1.0000   1.0000
     1.0000   1.0000   1.0000   1.0000   1.0000   1.0000   1.0000   1.0000
     1.0000   1.0000   1.0000   1.0000   1.0000   1.0000   0.7508   0.0697
     0.0009   0.0000   0.0000   0.0000   0.0000   0.0000   0.0000   0.0000
     0.0000   0.0000

          k = 0.2500-0.7071-0.1864 ( 19836 PWs)   bands (ev):

   -54.0060 -52.7739 -51.6061 -51.5553 -51.4696 -51.3503 -51.3143 -51.2647
   -50.3951 -50.3536 -47.8610 -46.4158 -28.2324 -27.6735 -27.6612 -27.5641
   -27.2124 -27.1866 -27.1477 -27.1177 -24.6600 -20.7147 -18.2776 -17.5812
   -16.8822 -16.5755 -15.7833 -15.6206 -14.9631 -14.7731 -13.4119 -11.9615
   -11.8149 -11.7669 -10.2934 -10.2474  -9.1189  -9.0927  -3.7307  -3.2255
    -2.0478  -1.4439  -1.3059   0.0263   0.7768   1.4194   2.0743   2.3169
     2.5356   2.8645   2.9140   3.0102   3.1229   3.3626   3.5060   3.7571
     3.9801   4.3328

     occupation numbers 
     1.0000   1.0000   1.0000   1.0000   1.0000   1.0000   1.0000   1.0000
     1.0000   1.0000   1.0000   1.0000   1.0000   1.0000   1.0000   1.0000
     1.0000   1.0000   1.0000   1.0000   1.0000   1.0000   1.0000   1.0000
     1.0000   1.0000   1.0000   1.0000   1.0000   1.0000   1.0000   1.0000
     1.0000   1.0000   1.0000   1.0000   1.0000   1.0000   1.0000   1.0000
     1.0000   1.0000   1.0000   1.0000   1.0000   1.0000   0.7507   0.0704
     0.0008   0.0000   0.0000   0.0000   0.0000   0.0000   0.0000   0.0000
     0.0000   0.0000

          k =-0.2500 0.7071 0.3728 ( 19842 PWs)   bands (ev):

   -54.0060 -52.7739 -51.6063 -51.5553 -51.4697 -51.3505 -51.3144 -51.2649
   -50.3951 -50.3536 -47.8610 -46.4158 -28.2324 -27.6736 -27.6611 -27.5642
   -27.2125 -27.1865 -27.1477 -27.1177 -24.6600 -20.7147 -18.2777 -17.5812
   -16.8822 -16.5755 -15.7833 -15.6207 -14.9631 -14.7731 -13.4119 -11.9615
   -11.8149 -11.7669 -10.2934 -10.2474  -9.1189  -9.0927  -3.7307  -3.2255
    -2.0478  -1.4439  -1.3059   0.0263   0.7769   1.4193   2.0741   2.3163
     2.5308   2.8662   2.9153   3.0153   3.1236   3.3536   3.5202   3.7751
     3.9507   4.3451

     occupation numbers 
     1.0000   1.0000   1.0000   1.0000   1.0000   1.0000   1.0000   1.0000
     1.0000   1.0000   1.0000   1.0000   1.0000   1.0000   1.0000   1.0000
     1.0000   1.0000   1.0000   1.0000   1.0000   1.0000   1.0000   1.0000
     1.0000   1.0000   1.0000   1.0000   1.0000   1.0000   1.0000   1.0000
     1.0000   1.0000   1.0000   1.0000   1.0000   1.0000   1.0000   1.0000
     1.0000   1.0000   1.0000   1.0000   1.0000   1.0000   0.7515   0.0710
     0.0009   0.0000   0.0000   0.0000   0.0000   0.0000   0.0000   0.0000
     0.0000   0.0000

          k =-0.2500 1.4142 0.1864 ( 19794 PWs)   bands (ev):

   -54.0003 -52.7685 -51.6054 -51.5632 -51.4691 -51.3498 -51.3136 -51.2640
   -50.4021 -50.3542 -47.8598 -46.4145 -28.2545 -27.6789 -27.6709 -27.5651
   -27.2153 -27.2031 -27.1640 -27.1199 -24.6377 -20.6775 -18.2974 -17.5717
   -16.8778 -16.5794 -15.7554 -15.5840 -14.9406 -14.7667 -13.4005 -11.9501
   -11.8825 -11.7548 -10.4059 -10.0293  -9.2045  -8.8909  -3.8111  -3.2956
    -1.2111  -1.0714  -0.8246  -0.1690   0.4492   0.5831   2.0709   2.3102
     2.4773   2.7528   2.9362   2.9602   3.2836   3.5223   3.7780   4.0815
     4.5649   5.2068

     occupation numbers 
     1.0000   1.0000   1.0000   1.0000   1.0000   1.0000   1.0000   1.0000
     1.0000   1.0000   1.0000   1.0000   1.0000   1.0000   1.0000   1.0000
     1.0000   1.0000   1.0000   1.0000   1.0000   1.0000   1.0000   1.0000
     1.0000   1.0000   1.0000   1.0000   1.0000   1.0000   1.0000   1.0000
     1.0000   1.0000   1.0000   1.0000   1.0000   1.0000   1.0000   1.0000
     1.0000   1.0000   1.0000   1.0000   1.0000   1.0000   0.7630   0.0778
     0.0033   0.0000   0.0000   0.0000   0.0000   0.0000   0.0000   0.0000
     0.0000   0.0000

          k = 0.5000-0.7071 0.1864 ( 19842 PWs)   bands (ev):

   -54.0060 -52.7739 -51.6060 -51.5553 -51.4696 -51.3502 -51.3142 -51.2646
   -50.3951 -50.3536 -47.8610 -46.4158 -28.2324 -27.6736 -27.6612 -27.5642
   -27.2124 -27.1866 -27.1478 -27.1177 -24.6600 -20.7147 -18.2776 -17.5846
   -16.8759 -16.5748 -15.7704 -15.6444 -14.9537 -14.7752 -13.4117 -11.9616
   -11.8147 -11.7671 -10.2934 -10.2474  -9.1189  -9.0927  -3.7310  -3.2264
    -2.0477  -1.4367  -1.3065   0.0089   0.7793   1.4146   2.1220   2.2684
     2.5675   2.8474   2.9616   3.0800   3.1598   3.2590   3.4172   3.7532
     3.9056   4.3398

     occupation numbers 
     1.0000   1.0000   1.0000   1.0000   1.0000   1.0000   1.0000   1.0000
     1.0000   1.0000   1.0000   1.0000   1.0000   1.0000   1.0000   1.0000
     1.0000   1.0000   1.0000   1.0000   1.0000   1.0000   1.0000   1.0000
     1.0000   1.0000   1.0000   1.0000   1.0000   1.0000   1.0000   1.0000
     1.0000   1.0000   1.0000   1.0000   1.0000   1.0000   1.0000   1.0000
     1.0000   1.0000   1.0000   1.0000   1.0000   1.0000   0.5742   0.1391
     0.0003   0.0000   0.0000   0.0000   0.0000   0.0000   0.0000   0.0000
     0.0000   0.0000

     the Fermi energy is     2.1697 ev

!    total energy              =    -563.16245000 Ry
     Harris-Foulkes estimate   =    -563.16244991 Ry
     estimated scf accuracy    <       0.00000088 Ry

     The total energy is the sum of the following terms:

     one-electron contribution =   -2345.56017091 Ry
     hartree contribution      =    1173.49489916 Ry
     xc contribution           =    -151.12416894 Ry
     ewald contribution        =     833.05942624 Ry
     one-center paw contrib.   =     -73.03116700 Ry
      -> PAW hartree energy AE =       0.00000000 Ry
      -> PAW hartree energy PS =       0.00000000 Ry
      -> PAW xc energy AE      =       0.00000000 Ry
      -> PAW xc energy PS      =       0.00000000 Ry
      -> total E_H with PAW    =    1173.49489916 Ry
      -> total E_XC with PAW   =    -151.12416894 Ry
     smearing contrib. (-TS)   =      -0.00126855 Ry

     total magnetization       =     2.15 Bohr mag/cell
     absolute magnetization    =     2.46 Bohr mag/cell

     convergence has been achieved in  32 iterations

     Forces acting on atoms (cartesian axes, Ry/au):

     atom    1 type  2   force =  -162.44634372    0.41399281    0.00161618
     atom    2 type  2   force =   163.06284841    0.06930179    0.00109268
     atom    3 type  2   force =  -162.71784482   -0.02774910    0.00412240
     atom    4 type  2   force =   162.71693396   -0.03016568    0.00130972
     atom    5 type  1   force =   -20.27587158    0.01105879   -0.00732935
     atom    6 type  1   force =    20.18205247    0.01677486   -0.00167887
     atom    7 type  1   force =   -20.18782210    0.03156644   -0.00267627
     atom    8 type  1   force =    20.28213363    0.00158847   -0.02377324
     atom    9 type  1   force =   -20.18683565   -0.04838828   -0.01174519
     atom   10 type  1   force =    20.29620843    0.01042678    0.01783615
     atom   11 type  1   force =   -20.38189377    0.17943171    0.01376068
     atom   12 type  1   force =    19.65643474   -0.62783860    0.00746511
     The non-local contrib.  to forces
     atom    1 type  2   force =   -14.81824194    0.18955208   -0.01864113
     atom    2 type  2   force =    14.25177411    0.13783082    0.01075319
     atom    3 type  2   force =   -14.29951738   -0.13375064    0.01565851
     atom    4 type  2   force =    14.29287284   -0.13349469    0.02522675
     atom    5 type  1   force =     2.13949690   -0.00224304    0.02406933
     atom    6 type  1   force =    -2.33356933   -0.07816545    0.01644992
     atom    7 type  1   force =     2.31453692   -0.03091925    0.05651327
     atom    8 type  1   force =    -2.11327887   -0.01226115   -0.08646093
     atom    9 type  1   force =     2.30480022    0.05433137   -0.11281122
     atom   10 type  1   force =    -2.12397161    0.04148081    0.08856389
     atom   11 type  1   force =     2.16089584    0.54870012    0.02808302
     atom   12 type  1   force =    -1.90497138    0.53731703   -0.03399290
     The ionic contribution  to forces
     atom    1 type  2   force =  -186.24673143    6.83988323   24.85898769
     atom    2 type  2   force =   204.41668966    3.47675638   24.05542490
     atom    3 type  2   force =  -198.17760553   -2.24607835  -22.42357369
     atom    4 type  2   force =   195.46072176   -2.25130424  -22.80251487
     atom    5 type  1   force =   -55.54447459    0.76997419  -16.85508094
     atom    6 type  1   force =    39.61796094    1.99933090  -15.12850061
     atom    7 type  1   force =   -40.33660122    1.99936544  -16.76034178
     atom    8 type  1   force =    55.46586173    0.76997369  -18.91158269
     atom    9 type  1   force =   -37.52012325   -2.00063239   15.22323347
     atom   10 type  1   force =    57.64231228   -0.76867270   16.76034808
     atom   11 type  1   force =   -63.15935981   -1.99933037   16.76037177
     atom   12 type  1   force =    28.38134946   -6.58926577   15.22322866
     The local contribution  to forces
     atom    1 type  2   force =    37.10696944   -6.60625653  -24.83880931
     atom    2 type  2   force =   -54.09719719   -3.53753503  -24.06418151
     atom    3 type  2   force =    48.24058551    2.34675079   22.41274050
     atom    4 type  2   force =   -45.52177208    2.34942579   22.77974519
     atom    5 type  1   force =    33.04736702   -0.75674353   16.82428182
     atom    6 type  1   force =   -17.02227276   -1.90543158   15.11072929
     atom    7 type  1   force =    17.75318399   -1.93739207   16.70175817
     atom    8 type  1   force =   -32.98741452   -0.75624809   18.97316047
     atom    9 type  1   force =    14.94844594    1.89873150  -15.12384744
     atom   10 type  1   force =   -35.13993942    0.73805032  -16.83035701
     atom   11 type  1   force =    40.53425041    1.63552234  -16.77413094
     atom   12 type  1   force =    -6.73977221    5.43107659  -15.18191398
     The core correction contribution to forces
     atom    1 type  2   force =     1.51269145   -0.00912267    0.00050527
     atom    2 type  2   force =    -1.50746761   -0.00775996   -0.00067886
     atom    3 type  2   force =     1.51719377    0.00537385   -0.00054032
     atom    4 type  2   force =    -1.51663344    0.00519651   -0.00103214
     atom    5 type  1   force =     0.08231526    0.00007374   -0.00054044
     atom    6 type  1   force =    -0.08039185    0.00103194   -0.00031753
     atom    7 type  1   force =     0.08044556    0.00053401   -0.00071508
     atom    8 type  1   force =    -0.08245341    0.00013349    0.00102360
     atom    9 type  1   force =     0.08036375   -0.00080759    0.00155535
     atom   10 type  1   force =    -0.08238574   -0.00042206   -0.00085003
     atom   11 type  1   force =     0.08214243   -0.00548862   -0.00023043
     atom   12 type  1   force =    -0.07977088   -0.00700582    0.00047803
     The Hubbard contrib.    to forces
     atom    1 type  2   force =     0.00000000    0.00000000    0.00000000
     atom    2 type  2   force =     0.00000000    0.00000000    0.00000000
     atom    3 type  2   force =     0.00000000    0.00000000    0.00000000
     atom    4 type  2   force =     0.00000000    0.00000000    0.00000000
     atom    5 type  1   force =     0.00000000    0.00000000    0.00000000
     atom    6 type  1   force =     0.00000000    0.00000000    0.00000000
     atom    7 type  1   force =     0.00000000    0.00000000    0.00000000
     atom    8 type  1   force =     0.00000000    0.00000000    0.00000000
     atom    9 type  1   force =     0.00000000    0.00000000    0.00000000
     atom   10 type  1   force =     0.00000000    0.00000000    0.00000000
     atom   11 type  1   force =     0.00000000    0.00000000    0.00000000
     atom   12 type  1   force =     0.00000000    0.00000000    0.00000000
     The SCF correction term to forces
     atom    1 type  2   force =    -0.00103710   -0.00005774   -0.00042528
     atom    2 type  2   force =    -0.00095640    0.00001512   -0.00022397
     atom    3 type  2   force =     0.00149297   -0.00003922   -0.00016154
     atom    4 type  2   force =     0.00173903    0.00001649   -0.00011416
     atom    5 type  1   force =    -0.00058202    0.00000297   -0.00005805
     atom    6 type  1   force =     0.00031961    0.00001460   -0.00003888
     atom    7 type  1   force =     0.00060681   -0.00001615    0.00011021
     atom    8 type  1   force =    -0.00058715   -0.00000392    0.00008738
     atom    9 type  1   force =    -0.00032817   -0.00000562    0.00012573
     atom   10 type  1   force =     0.00018707   -0.00000404    0.00013229
     atom   11 type  1   force =     0.00017151    0.00003379   -0.00033167
     atom   12 type  1   force =    -0.00040609    0.00004493   -0.00033363

     Total force =   330.441213     Total SCF correction =     0.003048


     Computing stress (Cartesian axis) and pressure

          total   stress  (Ry/bohr**3)                   (kbar)     P=     7221.04
   0.14690704   0.00026375   0.00000064        21610.77       38.80        0.09
   0.00026375   0.00035891  -0.00000503           38.80       52.80       -0.74
   0.00000064  -0.00000503  -0.00000305            0.09       -0.74       -0.45

     kinetic stress (kbar)   9528.40    -15.19     -2.11
                              -15.19   8493.49      6.45
                               -2.11      6.45   8495.73

     local   stress (kbar) -89415.41   -945.58  -1497.58
                             -945.58 -78041.00    398.09
                            -1497.58    398.09  62550.08

     nonloc. stress (kbar)   5398.85     -6.37     -0.71
                               -6.37   5890.51      2.28
                               -0.71      2.28   5890.37

     hartree stress (kbar)  40632.13    294.59    687.63
                              294.59  39640.71   -158.74
                              687.63   -158.74 -28295.19

     exc-cor stress (kbar)   -543.27      0.33      0.04
                                0.33   -561.65      0.00
                                0.04      0.00   -563.44

     corecor stress (kbar)  -1491.29     -0.31      0.02
                               -0.31  -1422.31     -0.04
                                0.02     -0.04  -1422.30

     ewald   stress (kbar)  57501.36    711.33    812.81
                              711.33  26053.06   -248.79
                              812.81   -248.79 -46655.69

     hubbard stress (kbar)      0.00      0.00      0.00
                                0.00      0.00      0.00
                                0.00      0.00      0.00

     london  stress (kbar)      0.00      0.00      0.00
                                0.00      0.00      0.00
                                0.00      0.00      0.00

     DFT-D3  stress (kbar)      0.00      0.00      0.00
                                0.00      0.00      0.00
                                0.00      0.00      0.00

     XDM     stress (kbar)      0.00      0.00      0.00
                                0.00      0.00      0.00
                                0.00      0.00      0.00

     dft-nl  stress (kbar)      0.00      0.00      0.00
                                0.00      0.00      0.00
                                0.00      0.00      0.00

     TS-vdW  stress (kbar)      0.00      0.00      0.00
                                0.00      0.00      0.00
                                0.00      0.00      0.00



     Writing output data file /tmp//ZrO2_110_scf_4+vacuum.save/
 
     init_run     :     27.48s CPU     61.94s WALL (       1 calls)
     electrons    :   1942.48s CPU   7799.54s WALL (       1 calls)
     forces       :      6.33s CPU     26.63s WALL (       1 calls)
     stress       :     19.14s CPU     77.46s WALL (       1 calls)

     Called by init_run:
     wfcinit      :     23.71s CPU     53.77s WALL (       1 calls)
     wfcinit:atom :      0.14s CPU      0.14s WALL (      72 calls)
     wfcinit:wfcr :     22.64s CPU     52.43s WALL (      72 calls)
     potinit      :      1.18s CPU      2.52s WALL (       1 calls)
     hinit0       :      2.15s CPU      4.65s WALL (       1 calls)

     Called by electrons:
     c_bands      :   1670.32s CPU   6721.91s WALL (      32 calls)
     sum_band     :    246.40s CPU    973.65s WALL (      32 calls)
     v_of_rho     :      7.90s CPU     28.40s WALL (      33 calls)
     v_h          :      0.28s CPU      0.88s WALL (      33 calls)
     v_xc         :      8.02s CPU     29.20s WALL (      35 calls)
     newd         :      9.35s CPU     35.80s WALL (      33 calls)
     PAW_pot      :      5.30s CPU     24.80s WALL (      33 calls)
     mix_rho      :      2.80s CPU     11.99s WALL (      32 calls)

     Called by c_bands:
     init_us_2    :      9.82s CPU     10.50s WALL (    4824 calls)
     cegterg      :   1604.23s CPU   6513.39s WALL (    2304 calls)

     Called by sum_band:
     sum_band:bec :      0.15s CPU      0.17s WALL (    2304 calls)
     addusdens    :     13.79s CPU     49.40s WALL (      32 calls)

     Called by *egterg:
     h_psi        :    989.25s CPU   3827.43s WALL (    9575 calls)
     s_psi        :     49.02s CPU    130.79s WALL (    9575 calls)
     g_psi        :      5.44s CPU      6.38s WALL (    7199 calls)
     cdiaghg      :    272.39s CPU   1226.99s WALL (    9503 calls)
     cegterg:over :    130.29s CPU    613.88s WALL (    7199 calls)
     cegterg:upda :     72.96s CPU    252.03s WALL (    7199 calls)
     cegterg:last :     31.31s CPU     93.83s WALL (    2350 calls)
     cdiaghg:chol :     30.62s CPU    148.27s WALL (    9503 calls)
     cdiaghg:inve :      4.66s CPU     19.67s WALL (    9503 calls)
     cdiaghg:para :     33.46s CPU    145.43s WALL (   19006 calls)

     Called by h_psi:
     h_psi:calbec :     80.14s CPU    311.89s WALL (    9575 calls)
     vloc_psi     :    856.57s CPU   3449.52s WALL (    9575 calls)
     add_vuspsi   :     50.63s CPU     60.23s WALL (    9575 calls)

     General routines
     calbec       :    112.43s CPU    442.05s WALL (   12239 calls)
     fft          :      6.37s CPU     26.43s WALL (     863 calls)
     ffts         :      0.28s CPU      1.03s WALL (     130 calls)
     fftw         :    995.34s CPU   4189.46s WALL (  766476 calls)
     interpolate  :      0.50s CPU      1.55s WALL (      66 calls)
 
     Parallel routines
     fft_scatt_xy :     74.05s CPU     79.94s WALL (  767469 calls)
     fft_scatt_yz :    708.66s CPU   3903.41s WALL (  767469 calls)

     PAW routines
     PAW_pot      :      5.30s CPU     24.80s WALL (      33 calls)
 
     PWSCF        :  33m27.20s CPU      2h13m WALL

 
   This run was terminated on:  14:34:46  16Aug2022            

=------------------------------------------------------------------------------=
   JOB DONE.
=------------------------------------------------------------------------------=
