
     Program PWSCF v.6.5 starts on  2Aug2022 at 16:26: 5 

     This program is part of the open-source Quantum ESPRESSO suite
     for quantum simulation of materials; please cite
         "P. Giannozzi et al., J. Phys.:Condens. Matter 21 395502 (2009);
         "P. Giannozzi et al., J. Phys.:Condens. Matter 29 465901 (2017);
          URL http://www.quantum-espresso.org", 
     in publications or presentations arising from this work. More details at
     http://www.quantum-espresso.org/quote

     Parallel version (MPI), running on     8 processors

     MPI processes distributed on     1 nodes
     R & G space division:  proc/nbgrp/npool/nimage =       8
     Waiting for input...
     Reading input from standard input

     Current dimensions of program PWSCF are:
     Max number of different atomic species (ntypx) = 10
     Max number of k-points (npk) =  40000
     Max angular momentum in pseudopotentials (lmaxx) =  3

     Subspace diagonalization in iterative solution of the eigenvalue problem:
     one sub-group per band group will be used
     scalapack distributed-memory algorithm (size of sub-group:  2*  2 procs)

 
     Parallelization info
     --------------------
     sticks:   dense  smooth     PW     G-vecs:    dense   smooth      PW
     Min         587     293     81                71532    25287    3581
     Max         589     294     82                71537    25300    3585
     Sum        4705    2347    649               572271   202347   28663
 


     bravais-lattice index     =            0
     lattice parameter (alat)  =      13.7761  a.u.
     unit-cell volume          =    4961.7944 (a.u.)^3
     number of atoms/cell      =           27
     number of atomic types    =            1
     number of electrons       =       486.00
     number of Kohn-Sham states=          292
     kinetic-energy cutoff     =      45.0000  Ry
     charge density cutoff     =     360.0000  Ry
     convergence threshold     =      5.4E-09
     mixing beta               =       0.4000
     number of iterations used =            8  plain     mixing
     Exchange-correlation= SLA  PW   PSX  PSC
                           (   1   4  10   8   0   0   0)

     celldm(1)=  13.776104  celldm(2)=   0.000000  celldm(3)=   0.000000
     celldm(4)=   0.000000  celldm(5)=   0.000000  celldm(6)=   0.000000

     crystal axes: (cart. coord. in units of alat)
               a(1) = (   1.000000   0.000000   0.000000 )  
               a(2) = (   0.500000   0.866025   0.000000 )  
               a(3) = (   0.000000   0.000000   2.191437 )  

     reciprocal axes: (cart. coord. in units 2 pi/alat)
               b(1) = (  1.000000 -0.577350  0.000000 )  
               b(2) = (  0.000000  1.154701  0.000000 )  
               b(3) = (  0.000000  0.000000  0.456322 )  


     PseudoPot. # 1 for Ni read from file:
     /home/zczlx99/q-e/pseudo/ni_pbesol_v1.4.uspp.F.UPF
     MD5 check sum: de937c0c8ae4b350e69c02b76d8a83cb
     Pseudo is Ultrasoft + core correction, Zval = 18.0
     Generated by new atomic code, or converted to UPF format
     Using radial grid of  865 points,  6 beta functions with: 
                l(1) =   0
                l(2) =   0
                l(3) =   1
                l(4) =   1
                l(5) =   2
                l(6) =   2
     Q(r) pseudized with 10 coefficients,  rinner =    0.980   0.980   0.980
                                                       0.980   0.980

     atomic species   valence    mass     pseudopotential
        Ni            18.00    58.69340     Ni( 1.00)

     Starting magnetic structure 
     atomic species   magnetization
        Ni           0.278

     No symmetry found


                                    s                        frac. trans.

      isym =  1     identity                                     

 cryst.   s( 1) = (     1          0          0      )
                  (     0          1          0      )
                  (     0          0          1      )

 cart.    s( 1) = (  1.0000000  0.0000000  0.0000000 )
                  (  0.0000000  1.0000000  0.0000000 )
                  (  0.0000000  0.0000000  1.0000000 )


   Cartesian axes

     site n.     atom                  positions (alat units)
         1           Ni  tau(   1) = (   6.9631670   3.6592778   0.0000000  )
         2           Ni  tau(   2) = (  14.0916625   5.4674998   0.0000000  )
         3           Ni  tau(   3) = (   9.4026850   3.6592778   0.0000000  )
         4           Ni  tau(   4) = (   9.2411805   5.4674998   0.0000000  )
         5           Ni  tau(   5) = (  11.8422030   3.6592778   0.0000000  )
         6           Ni  tau(   6) = (  11.6806995   5.4674998   0.0000000  )
         7           Ni  tau(   7) = (   7.9942285   1.2197595   4.3650308  )
         8           Ni  tau(   8) = (   3.1437465   1.2197595   4.3650308  )
         9           Ni  tau(   9) = (   5.5832655   1.2197595   4.3650308  )
        10           Ni  tau(  10) = (   6.2589385   2.4395182   8.7300617  )
        11           Ni  tau(  11) = (   8.6984565   2.4395182   8.7300617  )
        12           Ni  tau(  12) = (   3.8479745   2.4395182   8.7300617  )
        13           Ni  tau(  13) = (  12.5197895   4.8576205   4.3650308  )
        14           Ni  tau(  14) = (   7.8308120   3.0493984   4.3650308  )
        15           Ni  tau(  15) = (   7.6693075   4.8576205   4.3650308  )
        16           Ni  tau(  16) = (  10.2703300   3.0493984   4.3650308  )
        17           Ni  tau(  17) = (  10.1088255   4.8576205   4.3650308  )
        18           Ni  tau(  18) = (   5.4198480   3.0493984   4.3650308  )
        19           Ni  tau(  19) = (   6.4223550   0.6098793   8.7300617  )
        20           Ni  tau(  20) = (   8.5350400   4.2691571   8.7300617  )
        21           Ni  tau(  21) = (   1.5718730   0.6098793   8.7300617  )
        22           Ni  tau(  22) = (  10.9745580   4.2691571   8.7300617  )
        23           Ni  tau(  23) = (   4.0113910   0.6098793   8.7300617  )
        24           Ni  tau(  24) = (   6.1240760   4.2691571   8.7300617  )
        25           Ni  tau(  25) = (   7.1265835   1.8296389   0.0000000  )
        26           Ni  tau(  26) = (   9.5661015   1.8296389   0.0000000  )
        27           Ni  tau(  27) = (   4.7156195   1.8296389   0.0000000  )

   Crystallographic axes

     site n.     atom                  positions (cryst. coord.)
         1           Ni  tau(   1) = (  4.8504820  4.2253700  0.0000000  )
         2           Ni  tau(   2) = ( 10.9350000  6.3133250  0.0000000  )
         3           Ni  tau(   3) = (  7.2900000  4.2253700  0.0000000  )
         4           Ni  tau(   4) = (  6.0845180  6.3133250  0.0000000  )
         5           Ni  tau(   5) = (  9.7295180  4.2253700  0.0000000  )
         6           Ni  tau(   6) = (  8.5240370  6.3133250  0.0000000  )
         7           Ni  tau(   7) = (  7.2900000  1.4084570  1.9918580  )
         8           Ni  tau(   8) = (  2.4395180  1.4084570  1.9918580  )
         9           Ni  tau(   9) = (  4.8790370  1.4084570  1.9918580  )
        10           Ni  tau(  10) = (  4.8504820  2.8169130  3.9837160  )
        11           Ni  tau(  11) = (  7.2900000  2.8169130  3.9837160  )
        12           Ni  tau(  12) = (  2.4395180  2.8169130  3.9837160  )
        13           Ni  tau(  13) = (  9.7152410  5.6090970  1.9918580  )
        14           Ni  tau(  14) = (  6.0702410  3.5211420  1.9918580  )
        15           Ni  tau(  15) = (  4.8647590  5.6090970  1.9918580  )
        16           Ni  tau(  16) = (  8.5097590  3.5211420  1.9918580  )
        17           Ni  tau(  17) = (  7.3042770  5.6090970  1.9918580  )
        18           Ni  tau(  18) = (  3.6592770  3.5211420  1.9918580  )
        19           Ni  tau(  19) = (  6.0702410  0.7042280  3.9837160  )
        20           Ni  tau(  20) = (  6.0702410  4.9295980  3.9837160  )
        21           Ni  tau(  21) = (  1.2197590  0.7042280  3.9837160  )
        22           Ni  tau(  22) = (  8.5097590  4.9295980  3.9837160  )
        23           Ni  tau(  23) = (  3.6592770  0.7042280  3.9837160  )
        24           Ni  tau(  24) = (  3.6592770  4.9295980  3.9837160  )
        25           Ni  tau(  25) = (  6.0702410  2.1126850  0.0000000  )
        26           Ni  tau(  26) = (  8.5097590  2.1126850  0.0000000  )
        27           Ni  tau(  27) = (  3.6592770  2.1126850  0.0000000  )

     number of k points=     8  Marzari-Vanderbilt smearing, width (Ry)=  0.0147
                       cart. coord. in units 2pi/alat
        k(    1) = (   0.0000000   0.0000000   0.0000000), wk =   0.1250000
        k(    2) = (   0.0000000   0.0000000  -0.2281608), wk =   0.1250000
        k(    3) = (   0.0000000  -0.5773503   0.0000000), wk =   0.1250000
        k(    4) = (   0.0000000  -0.5773503  -0.2281608), wk =   0.1250000
        k(    5) = (   0.5000000  -0.2886751   0.0000000), wk =   0.1250000
        k(    6) = (  -0.5000000  -0.2886751   0.0000000), wk =   0.1250000
        k(    7) = (   0.5000000  -0.2886751  -0.2281608), wk =   0.1250000
        k(    8) = (  -0.5000000  -0.2886751  -0.2281608), wk =   0.1250000

                       cryst. coord.
        k(    1) = (   0.0000000   0.0000000   0.0000000), wk =   0.1250000
        k(    2) = (   0.0000000   0.0000000  -0.5000000), wk =   0.1250000
        k(    3) = (   0.0000000  -0.5000000   0.0000000), wk =   0.1250000
        k(    4) = (   0.0000000  -0.5000000  -0.5000000), wk =   0.1250000
        k(    5) = (   0.5000000   0.0000000   0.0000000), wk =   0.1250000
        k(    6) = (  -0.5000000  -0.5000000   0.0000000), wk =   0.1250000
        k(    7) = (   0.5000000   0.0000000  -0.5000000), wk =   0.1250000
        k(    8) = (  -0.5000000  -0.5000000  -0.5000000), wk =   0.1250000

     Dense  grid:   572271 G-vectors     FFT dimensions: (  90,  90, 192)

     Smooth grid:   202347 G-vectors     FFT dimensions: (  60,  60, 135)

     Dynamical RAM for                 wfc:      14.08 MB

     Dynamical RAM for     wfc (w. buffer):     239.43 MB

     Dynamical RAM for           str. fact:       1.09 MB

     Dynamical RAM for           local pot:       0.00 MB

     Dynamical RAM for          nlocal pot:      23.44 MB

     Dynamical RAM for                qrad:       3.34 MB

     Dynamical RAM for          rho,v,vnew:      15.45 MB

     Dynamical RAM for               rhoin:       5.15 MB

     Dynamical RAM for            rho*nmix:      34.93 MB

     Dynamical RAM for           G-vectors:       4.29 MB

     Dynamical RAM for          h,s,v(r/c):      15.61 MB

     Dynamical RAM for          <psi|beta>:       2.17 MB

     Dynamical RAM for                 psi:      56.34 MB

     Dynamical RAM for                hpsi:      56.34 MB

     Dynamical RAM for                spsi:      56.34 MB

     Dynamical RAM for      wfcinit/wfcrot:      36.68 MB

     Dynamical RAM for           addusdens:     233.58 MB

     Dynamical RAM for          addusforce:     290.55 MB

     Dynamical RAM for         addusstress:     221.03 MB

     Estimated static dynamical RAM per process >     338.19 MB

     Estimated max dynamical RAM per process >     628.74 MB

     Estimated total dynamical RAM >       4.91 GB
     Generating pointlists ...
     new r_m :   0.0349 (alat units)  0.4814 (a.u.) for type    1

     Check: negative core charge=   -0.000002

     Initial potential from superposition of free atoms

     starting charge  432.00000, renormalised to  486.00000
     Starting wfcs are  351 randomized atomic wfcs

     total cpu time spent up to now is      103.3 secs

     Self-consistent Calculation

     iteration #  1     ecut=    45.00 Ry     beta= 0.40
     Davidson diagonalization with overlap
     ethr =  1.00E-02,  avg # of iterations =  7.1

     total cpu time spent up to now is      801.6 secs

     total energy              =   -4425.33520692 Ry
     Harris-Foulkes estimate   =   -9240.52550011 Ry
     estimated scf accuracy    <    7743.94300297 Ry

     total magnetization       =    15.37 Bohr mag/cell
     absolute magnetization    =    16.07 Bohr mag/cell

     iteration #  2     ecut=    45.00 Ry     beta= 0.40
     Davidson diagonalization with overlap
     ethr =  1.00E-02,  avg # of iterations =  6.1

     total cpu time spent up to now is     1719.0 secs

     total energy              =   -9453.62092784 Ry
     Harris-Foulkes estimate   =  -10210.43860162 Ry
     estimated scf accuracy    <    1653.12076910 Ry

     total magnetization       =     6.72 Bohr mag/cell
     absolute magnetization    =     7.59 Bohr mag/cell

     iteration #  3     ecut=    45.00 Ry     beta= 0.40
     Davidson diagonalization with overlap
     ethr =  1.00E-02,  avg # of iterations =  5.0

     total cpu time spent up to now is     2413.8 secs

     total energy              =   -9270.05450294 Ry
     Harris-Foulkes estimate   =   -9500.46293403 Ry
     estimated scf accuracy    <     707.68421694 Ry

     total magnetization       =     2.96 Bohr mag/cell
     absolute magnetization    =     3.63 Bohr mag/cell

     iteration #  4     ecut=    45.00 Ry     beta= 0.40
     Davidson diagonalization with overlap
     ethr =  1.00E-02,  avg # of iterations =  3.2

     total cpu time spent up to now is     2783.2 secs

     total energy              =   -9147.03384340 Ry
     Harris-Foulkes estimate   =   -9276.37178105 Ry
     estimated scf accuracy    <     425.92628934 Ry

     total magnetization       =     5.43 Bohr mag/cell
     absolute magnetization    =     5.73 Bohr mag/cell

     iteration #  5     ecut=    45.00 Ry     beta= 0.40
     Davidson diagonalization with overlap
     ethr =  1.00E-02,  avg # of iterations =  2.2

     total cpu time spent up to now is     3119.2 secs

     total energy              =   -9091.40302831 Ry
     Harris-Foulkes estimate   =   -9150.15705609 Ry
     estimated scf accuracy    <     271.77848180 Ry

     total magnetization       =     3.85 Bohr mag/cell
     absolute magnetization    =     4.45 Bohr mag/cell

     iteration #  6     ecut=    45.00 Ry     beta= 0.40
     Davidson diagonalization with overlap
     ethr =  1.00E-02,  avg # of iterations =  1.2

     total cpu time spent up to now is     3356.5 secs

     total energy              =   -8991.46529248 Ry
     Harris-Foulkes estimate   =   -9092.88100438 Ry
     estimated scf accuracy    <     201.13375958 Ry

     total magnetization       =     4.89 Bohr mag/cell
     absolute magnetization    =     5.21 Bohr mag/cell

     iteration #  7     ecut=    45.00 Ry     beta= 0.40
     Davidson diagonalization with overlap
     ethr =  1.00E-02,  avg # of iterations =  4.0

     total cpu time spent up to now is     3653.8 secs

     total energy              =   -8960.75034056 Ry
     Harris-Foulkes estimate   =   -8995.32459554 Ry
     estimated scf accuracy    <      81.37148546 Ry

     total magnetization       =     2.31 Bohr mag/cell
     absolute magnetization    =     3.10 Bohr mag/cell

     iteration #  8     ecut=    45.00 Ry     beta= 0.40
     Davidson diagonalization with overlap
     ethr =  1.00E-02,  avg # of iterations =  2.0

     total cpu time spent up to now is     3891.3 secs

     total energy              =   -8959.08999826 Ry
     Harris-Foulkes estimate   =   -8962.48920663 Ry
     estimated scf accuracy    <      34.79380989 Ry

     total magnetization       =     3.23 Bohr mag/cell
     absolute magnetization    =     3.63 Bohr mag/cell

     iteration #  9     ecut=    45.00 Ry     beta= 0.40
     Davidson diagonalization with overlap
     ethr =  7.16E-03,  avg # of iterations =  1.0

     total cpu time spent up to now is     4065.6 secs

     total energy              =   -8950.70783118 Ry
     Harris-Foulkes estimate   =   -8959.44261141 Ry
     estimated scf accuracy    <      30.54780064 Ry

     total magnetization       =     2.80 Bohr mag/cell
     absolute magnetization    =     3.29 Bohr mag/cell

     iteration # 10     ecut=    45.00 Ry     beta= 0.40
     Davidson diagonalization with overlap
     ethr =  6.29E-03,  avg # of iterations =  1.0

     total cpu time spent up to now is     4217.6 secs

     total energy              =   -8934.25503094 Ry
     Harris-Foulkes estimate   =   -8951.35425680 Ry
     estimated scf accuracy    <      24.35589497 Ry

     total magnetization       =     2.35 Bohr mag/cell
     absolute magnetization    =     2.71 Bohr mag/cell

     iteration # 11     ecut=    45.00 Ry     beta= 0.40
     Davidson diagonalization with overlap
     ethr =  5.01E-03,  avg # of iterations =  6.9

     total cpu time spent up to now is     4570.2 secs

     total energy              =   -8936.40094646 Ry
     Harris-Foulkes estimate   =   -8939.38879327 Ry
     estimated scf accuracy    <      18.27892144 Ry

     total magnetization       =     0.72 Bohr mag/cell
     absolute magnetization    =     1.10 Bohr mag/cell

     iteration # 12     ecut=    45.00 Ry     beta= 0.40
     Davidson diagonalization with overlap
     ethr =  3.76E-03,  avg # of iterations =  3.5

     total cpu time spent up to now is     4761.2 secs

     total energy              =   -8937.40716983 Ry
     Harris-Foulkes estimate   =   -8937.86993210 Ry
     estimated scf accuracy    <       2.94222632 Ry

     total magnetization       =     1.02 Bohr mag/cell
     absolute magnetization    =     1.24 Bohr mag/cell

     iteration # 13     ecut=    45.00 Ry     beta= 0.40
     Davidson diagonalization with overlap
     ethr =  6.05E-04,  avg # of iterations =  4.8

     total cpu time spent up to now is     4977.6 secs

     total energy              =   -8937.47868439 Ry
     Harris-Foulkes estimate   =   -8937.90548762 Ry
     estimated scf accuracy    <       4.45275037 Ry

     total magnetization       =     0.77 Bohr mag/cell
     absolute magnetization    =     0.92 Bohr mag/cell

     iteration # 14     ecut=    45.00 Ry     beta= 0.40
     Davidson diagonalization with overlap
     ethr =  6.05E-04,  avg # of iterations =  6.6

     total cpu time spent up to now is     5239.4 secs

     total energy              =   -8933.07698731 Ry
     Harris-Foulkes estimate   =   -8938.10171856 Ry
     estimated scf accuracy    <      11.45908961 Ry

     total magnetization       =     0.32 Bohr mag/cell
     absolute magnetization    =     0.47 Bohr mag/cell

     iteration # 15     ecut=    45.00 Ry     beta= 0.40
     Davidson diagonalization with overlap
     ethr =  6.05E-04,  avg # of iterations =  4.8

     total cpu time spent up to now is     5512.9 secs

     total energy              =   -8937.76204651 Ry
     Harris-Foulkes estimate   =   -8938.18605907 Ry
     estimated scf accuracy    <       1.39277547 Ry

     total magnetization       =     0.58 Bohr mag/cell
     absolute magnetization    =     0.77 Bohr mag/cell

     iteration # 16     ecut=    45.00 Ry     beta= 0.40
     Davidson diagonalization with overlap
     ethr =  2.87E-04,  avg # of iterations =  5.2

     total cpu time spent up to now is     5730.9 secs

     total energy              =   -8937.57574493 Ry
     Harris-Foulkes estimate   =   -8937.83429047 Ry
     estimated scf accuracy    <       0.66901460 Ry

     total magnetization       =     0.49 Bohr mag/cell
     absolute magnetization    =     0.64 Bohr mag/cell

     iteration # 17     ecut=    45.00 Ry     beta= 0.40
     Davidson diagonalization with overlap
     ethr =  1.38E-04,  avg # of iterations =  5.8

     total cpu time spent up to now is     5976.7 secs

     total energy              =   -8937.50373365 Ry
     Harris-Foulkes estimate   =   -8937.60579304 Ry
     estimated scf accuracy    <       0.23132226 Ry

     total magnetization       =     0.22 Bohr mag/cell
     absolute magnetization    =     0.33 Bohr mag/cell

     iteration # 18     ecut=    45.00 Ry     beta= 0.40
     Davidson diagonalization with overlap
     ethr =  4.76E-05,  avg # of iterations =  5.6

     total cpu time spent up to now is     6215.3 secs

     total energy              =   -8937.50321984 Ry
     Harris-Foulkes estimate   =   -8937.51777709 Ry
     estimated scf accuracy    <       0.08222370 Ry

     total magnetization       =     0.16 Bohr mag/cell
     absolute magnetization    =     0.24 Bohr mag/cell

     iteration # 19     ecut=    45.00 Ry     beta= 0.40
     Davidson diagonalization with overlap
     ethr =  1.69E-05,  avg # of iterations =  4.4

     total cpu time spent up to now is     6425.7 secs

     total energy              =   -8937.48916975 Ry
     Harris-Foulkes estimate   =   -8937.50596021 Ry
     estimated scf accuracy    <       0.04172657 Ry

     total magnetization       =     0.12 Bohr mag/cell
     absolute magnetization    =     0.18 Bohr mag/cell

     iteration # 20     ecut=    45.00 Ry     beta= 0.40
     Davidson diagonalization with overlap
     ethr =  8.59E-06,  avg # of iterations =  5.8

     total cpu time spent up to now is     6672.7 secs

     total energy              =   -8937.48606179 Ry
     Harris-Foulkes estimate   =   -8937.49788191 Ry
     estimated scf accuracy    <       0.10915737 Ry

     total magnetization       =     0.07 Bohr mag/cell
     absolute magnetization    =     0.10 Bohr mag/cell

     iteration # 21     ecut=    45.00 Ry     beta= 0.40
     Davidson diagonalization with overlap
     ethr =  8.59E-06,  avg # of iterations =  4.2

     total cpu time spent up to now is     6883.0 secs

     total energy              =   -8937.49835005 Ry
     Harris-Foulkes estimate   =   -8937.49478076 Ry
     estimated scf accuracy    <       0.02420070 Ry

     total magnetization       =     0.03 Bohr mag/cell
     absolute magnetization    =     0.07 Bohr mag/cell

     iteration # 22     ecut=    45.00 Ry     beta= 0.40
     Davidson diagonalization with overlap
     ethr =  4.98E-06,  avg # of iterations =  5.6

     total cpu time spent up to now is     7037.7 secs

     total energy              =   -8937.49065365 Ry
     Harris-Foulkes estimate   =   -8937.50307233 Ry
     estimated scf accuracy    <       0.04711999 Ry

     total magnetization       =     0.06 Bohr mag/cell
     absolute magnetization    =     0.10 Bohr mag/cell

     iteration # 23     ecut=    45.00 Ry     beta= 0.40
     Davidson diagonalization with overlap
     ethr =  4.98E-06,  avg # of iterations =  5.6

     total cpu time spent up to now is     7168.5 secs

     total energy              =   -8937.48902098 Ry
     Harris-Foulkes estimate   =   -8937.49391145 Ry
     estimated scf accuracy    <       0.01325288 Ry

     total magnetization       =     0.03 Bohr mag/cell
     absolute magnetization    =     0.05 Bohr mag/cell

     iteration # 24     ecut=    45.00 Ry     beta= 0.40
     Davidson diagonalization with overlap
     ethr =  2.73E-06,  avg # of iterations =  5.9

     total cpu time spent up to now is     7312.0 secs

     total energy              =   -8937.49018023 Ry
     Harris-Foulkes estimate   =   -8937.49094229 Ry
     estimated scf accuracy    <       0.00447484 Ry

     total magnetization       =    -0.02 Bohr mag/cell
     absolute magnetization    =     0.03 Bohr mag/cell

     iteration # 25     ecut=    45.00 Ry     beta= 0.40
     Davidson diagonalization with overlap
     ethr =  9.21E-07,  avg # of iterations =  2.9

     total cpu time spent up to now is     7417.8 secs

     total energy              =   -8937.49075483 Ry
     Harris-Foulkes estimate   =   -8937.49085899 Ry
     estimated scf accuracy    <       0.00237662 Ry

     total magnetization       =    -0.02 Bohr mag/cell
     absolute magnetization    =     0.02 Bohr mag/cell

     iteration # 26     ecut=    45.00 Ry     beta= 0.40
     Davidson diagonalization with overlap
     ethr =  4.89E-07,  avg # of iterations =  4.8

     total cpu time spent up to now is     7540.5 secs

     total energy              =   -8937.49091744 Ry
     Harris-Foulkes estimate   =   -8937.49100110 Ry
     estimated scf accuracy    <       0.00065768 Ry

     total magnetization       =    -0.01 Bohr mag/cell
     absolute magnetization    =     0.02 Bohr mag/cell

     iteration # 27     ecut=    45.00 Ry     beta= 0.40
     Davidson diagonalization with overlap
     ethr =  1.35E-07,  avg # of iterations =  2.2

     total cpu time spent up to now is     7642.4 secs

     total energy              =   -8937.49099529 Ry
     Harris-Foulkes estimate   =   -8937.49102788 Ry
     estimated scf accuracy    <       0.00047445 Ry

     total magnetization       =    -0.01 Bohr mag/cell
     absolute magnetization    =     0.02 Bohr mag/cell

     iteration # 28     ecut=    45.00 Ry     beta= 0.40
     Davidson diagonalization with overlap
     ethr =  9.76E-08,  avg # of iterations =  2.9

     total cpu time spent up to now is     7744.4 secs

     total energy              =   -8937.49103545 Ry
     Harris-Foulkes estimate   =   -8937.49105656 Ry
     estimated scf accuracy    <       0.00023366 Ry

     total magnetization       =    -0.01 Bohr mag/cell
     absolute magnetization    =     0.01 Bohr mag/cell

     iteration # 29     ecut=    45.00 Ry     beta= 0.40
     Davidson diagonalization with overlap
     ethr =  4.81E-08,  avg # of iterations =  2.1

     total cpu time spent up to now is     7839.7 secs

     total energy              =   -8937.49105475 Ry
     Harris-Foulkes estimate   =   -8937.49106363 Ry
     estimated scf accuracy    <       0.00005905 Ry

     total magnetization       =    -0.01 Bohr mag/cell
     absolute magnetization    =     0.01 Bohr mag/cell

     iteration # 30     ecut=    45.00 Ry     beta= 0.40
     Davidson diagonalization with overlap
     ethr =  1.22E-08,  avg # of iterations =  2.0

     total cpu time spent up to now is     7938.0 secs

     total energy              =   -8937.49105760 Ry
     Harris-Foulkes estimate   =   -8937.49106670 Ry
     estimated scf accuracy    <       0.00006068 Ry

     total magnetization       =    -0.01 Bohr mag/cell
     absolute magnetization    =     0.01 Bohr mag/cell

     iteration # 31     ecut=    45.00 Ry     beta= 0.40
     Davidson diagonalization with overlap
     ethr =  1.22E-08,  avg # of iterations =  1.4

     total cpu time spent up to now is     8031.0 secs

     total energy              =   -8937.49106106 Ry
     Harris-Foulkes estimate   =   -8937.49106478 Ry
     estimated scf accuracy    <       0.00002595 Ry

     total magnetization       =    -0.00 Bohr mag/cell
     absolute magnetization    =     0.01 Bohr mag/cell

     iteration # 32     ecut=    45.00 Ry     beta= 0.40
     Davidson diagonalization with overlap
     ethr =  5.34E-09,  avg # of iterations =  1.6

     total cpu time spent up to now is     8127.4 secs

     total energy              =   -8937.49106218 Ry
     Harris-Foulkes estimate   =   -8937.49106525 Ry
     estimated scf accuracy    <       0.00002332 Ry

     total magnetization       =    -0.00 Bohr mag/cell
     absolute magnetization    =     0.01 Bohr mag/cell

     iteration # 33     ecut=    45.00 Ry     beta= 0.40
     Davidson diagonalization with overlap
     ethr =  4.80E-09,  avg # of iterations =  1.0

     total cpu time spent up to now is     8214.9 secs

     total energy              =   -8937.49106354 Ry
     Harris-Foulkes estimate   =   -8937.49106433 Ry
     estimated scf accuracy    <       0.00000524 Ry

     total magnetization       =    -0.00 Bohr mag/cell
     absolute magnetization    =     0.00 Bohr mag/cell

     iteration # 34     ecut=    45.00 Ry     beta= 0.40
     Davidson diagonalization with overlap
     ethr =  1.08E-09,  avg # of iterations =  1.2

     total cpu time spent up to now is     8307.8 secs

     total energy              =   -8937.49106374 Ry
     Harris-Foulkes estimate   =   -8937.49106411 Ry
     estimated scf accuracy    <       0.00000149 Ry

     total magnetization       =    -0.00 Bohr mag/cell
     absolute magnetization    =     0.00 Bohr mag/cell

     iteration # 35     ecut=    45.00 Ry     beta= 0.40
     Davidson diagonalization with overlap
     ethr =  3.06E-10,  avg # of iterations =  2.0

     total cpu time spent up to now is     8407.7 secs

     total energy              =   -8937.49106362 Ry
     Harris-Foulkes estimate   =   -8937.49106413 Ry
     estimated scf accuracy    <       0.00000320 Ry

     total magnetization       =    -0.00 Bohr mag/cell
     absolute magnetization    =     0.00 Bohr mag/cell

     iteration # 36     ecut=    45.00 Ry     beta= 0.40
     Davidson diagonalization with overlap
     ethr =  3.06E-10,  avg # of iterations =  2.0

     total cpu time spent up to now is     8507.4 secs

     total energy              =   -8937.49106377 Ry
     Harris-Foulkes estimate   =   -8937.49106395 Ry
     estimated scf accuracy    <       0.00000080 Ry

     total magnetization       =    -0.00 Bohr mag/cell
     absolute magnetization    =     0.00 Bohr mag/cell

     iteration # 37     ecut=    45.00 Ry     beta= 0.40
     Davidson diagonalization with overlap
     ethr =  1.65E-10,  avg # of iterations =  2.0

     total cpu time spent up to now is     8609.3 secs

     total energy              =   -8937.49106370 Ry
     Harris-Foulkes estimate   =   -8937.49106398 Ry
     estimated scf accuracy    <       0.00000167 Ry

     total magnetization       =    -0.00 Bohr mag/cell
     absolute magnetization    =     0.00 Bohr mag/cell

     iteration # 38     ecut=    45.00 Ry     beta= 0.40
     Davidson diagonalization with overlap
     ethr =  1.65E-10,  avg # of iterations =  2.0

     total cpu time spent up to now is     8705.2 secs

     total energy              =   -8937.49106376 Ry
     Harris-Foulkes estimate   =   -8937.49106384 Ry
     estimated scf accuracy    <       0.00000022 Ry

     total magnetization       =    -0.00 Bohr mag/cell
     absolute magnetization    =     0.00 Bohr mag/cell

     iteration # 39     ecut=    45.00 Ry     beta= 0.40
     Davidson diagonalization with overlap
     ethr =  4.48E-11,  avg # of iterations =  2.0

     total cpu time spent up to now is     8801.7 secs

     total energy              =   -8937.49106373 Ry
     Harris-Foulkes estimate   =   -8937.49106380 Ry
     estimated scf accuracy    <       0.00000015 Ry

     total magnetization       =    -0.00 Bohr mag/cell
     absolute magnetization    =     0.00 Bohr mag/cell

     iteration # 40     ecut=    45.00 Ry     beta= 0.40
     Davidson diagonalization with overlap
     ethr =  3.06E-11,  avg # of iterations =  1.9

     total cpu time spent up to now is     8898.6 secs

     total energy              =   -8937.49106372 Ry
     Harris-Foulkes estimate   =   -8937.49106375 Ry
     estimated scf accuracy    <       0.00000006 Ry

     total magnetization       =    -0.00 Bohr mag/cell
     absolute magnetization    =     0.00 Bohr mag/cell

     iteration # 41     ecut=    45.00 Ry     beta= 0.40
     Davidson diagonalization with overlap
     ethr =  1.33E-11,  avg # of iterations =  2.0

     total cpu time spent up to now is     8993.7 secs

     total energy              =   -8937.49106370 Ry
     Harris-Foulkes estimate   =   -8937.49106373 Ry
     estimated scf accuracy    <       0.00000005 Ry

     total magnetization       =    -0.00 Bohr mag/cell
     absolute magnetization    =     0.00 Bohr mag/cell

     iteration # 42     ecut=    45.00 Ry     beta= 0.40
     Davidson diagonalization with overlap
     ethr =  9.73E-12,  avg # of iterations =  1.4

     total cpu time spent up to now is     9087.1 secs

     total energy              =   -8937.49106369 Ry
     Harris-Foulkes estimate   =   -8937.49106371 Ry
     estimated scf accuracy    <       0.00000005 Ry

     total magnetization       =    -0.00 Bohr mag/cell
     absolute magnetization    =     0.00 Bohr mag/cell

     iteration # 43     ecut=    45.00 Ry     beta= 0.40
     Davidson diagonalization with overlap
     ethr =  9.73E-12,  avg # of iterations =  1.1

     total cpu time spent up to now is     9178.3 secs

     total energy              =   -8937.49106368 Ry
     Harris-Foulkes estimate   =   -8937.49106370 Ry
     estimated scf accuracy    <       0.00000003 Ry

     total magnetization       =    -0.00 Bohr mag/cell
     absolute magnetization    =     0.00 Bohr mag/cell

     iteration # 44     ecut=    45.00 Ry     beta= 0.40
     Davidson diagonalization with overlap
     ethr =  5.26E-12,  avg # of iterations =  1.0

     total cpu time spent up to now is     9272.7 secs

     total energy              =   -8937.49106368 Ry
     Harris-Foulkes estimate   =   -8937.49106368 Ry
     estimated scf accuracy    <          7.4E-09 Ry

     total magnetization       =    -0.00 Bohr mag/cell
     absolute magnetization    =     0.00 Bohr mag/cell

     iteration # 45     ecut=    45.00 Ry     beta= 0.40
     Davidson diagonalization with overlap
     ethr =  1.52E-12,  avg # of iterations =  2.0

     total cpu time spent up to now is     9371.1 secs

     total energy              =   -8937.49106368 Ry
     Harris-Foulkes estimate   =   -8937.49106368 Ry
     estimated scf accuracy    <       0.00000001 Ry

     total magnetization       =    -0.00 Bohr mag/cell
     absolute magnetization    =     0.00 Bohr mag/cell

     iteration # 46     ecut=    45.00 Ry     beta= 0.40
     Davidson diagonalization with overlap
     ethr =  1.52E-12,  avg # of iterations =  2.0
 
     Magnetic moment per site:
     atom:    1    charge:    3.9341    magn:   -0.0000    constr:    0.0000
     atom:    2    charge:    4.5529    magn:    0.0000    constr:    0.0000
     atom:    3    charge:    3.5773    magn:    0.0000    constr:    0.0000
     atom:    4    charge:    3.7019    magn:    0.0000    constr:    0.0000
     atom:    5    charge:    3.8944    magn:   -0.0000    constr:    0.0000
     atom:    6    charge:    4.2749    magn:    0.0000    constr:    0.0000
     atom:    7    charge:    3.6391    magn:    0.0000    constr:    0.0000
     atom:    8    charge:    4.3711    magn:    0.0000    constr:    0.0000
     atom:    9    charge:    4.3678    magn:    0.0000    constr:    0.0000
     atom:   10    charge:    3.5868    magn:    0.0000    constr:    0.0000
     atom:   11    charge:    3.7095    magn:   -0.0000    constr:    0.0000
     atom:   12    charge:    3.6971    magn:   -0.0000    constr:    0.0000
     atom:   13    charge:    4.6493    magn:   -0.0000    constr:    0.0000
     atom:   14    charge:    3.5625    magn:    0.0000    constr:    0.0000
     atom:   15    charge:    3.6857    magn:    0.0000    constr:    0.0000
     atom:   16    charge:    3.6920    magn:   -0.0000    constr:    0.0000
     atom:   17    charge:    4.2399    magn:   -0.0000    constr:    0.0000
     atom:   18    charge:    3.8630    magn:   -0.0000    constr:    0.0000
     atom:   19    charge:    3.6773    magn:    0.0000    constr:    0.0000
     atom:   20    charge:    3.5470    magn:   -0.0000    constr:    0.0000
     atom:   21    charge:    4.3497    magn:    0.0000    constr:    0.0000
     atom:   22    charge:    3.7156    magn:    0.0000    constr:    0.0000
     atom:   23    charge:    4.4083    magn:   -0.0000    constr:    0.0000
     atom:   24    charge:    3.7287    magn:    0.0000    constr:    0.0000
     atom:   25    charge:    3.5925    magn:   -0.0000    constr:    0.0000
     atom:   26    charge:    3.6907    magn:    0.0000    constr:    0.0000
     atom:   27    charge:    3.7464    magn:    0.0000    constr:    0.0000

     total cpu time spent up to now is     9467.0 secs

     End of self-consistent calculation

 ------ SPIN UP ------------


          k = 0.0000 0.0000 0.0000 ( 25307 PWs)   bands (ev):

  -186.2999-184.5387-176.3587-176.1450-138.6638-134.5431-122.6483-122.3526
  -121.3660-119.1336-117.7773-117.2749-115.8679-115.2134-114.5221-112.8523
  -111.5479-111.1634-108.7843-108.2253-107.5916-106.6554-106.2127-104.7785
  -104.5226-103.8509-103.7244-103.4803-102.7103-102.1491-101.8422-101.2700
  -100.3908 -98.9613 -98.4069 -92.6649 -90.3925 -87.4610 -87.0535 -85.3955
   -83.8695 -83.0370 -82.3583 -81.9932 -81.1955 -80.3967 -79.4171 -78.5277
   -77.3977 -76.6386 -75.2850 -74.9642 -73.9828 -73.7125 -73.1335 -72.1926
   -71.9071 -71.7221 -71.5721 -71.4343 -71.2541 -71.0905 -70.5393 -70.3075
   -69.8586 -69.6624 -69.2571 -69.0518 -68.6772 -68.5330 -68.3799 -68.1342
   -67.9782 -67.2517 -67.1352 -66.2508 -66.0169 -65.5918 -65.3711 -65.2841
   -64.9156 -64.7328 -64.5600 -64.3807 -64.2613 -63.4531 -63.3847 -63.3077
   -62.9341 -62.8497 -62.6110 -62.4795 -62.2442 -61.6182 -60.9960 -60.6447
   -60.5460 -60.1422 -59.6773 -59.6556 -58.9321 -56.7409 -55.9618 -52.9086
   -38.3902 -38.1303 -37.5349 -36.9604 -34.4248 -33.9612 -32.8138 -31.7253
   -31.5129 -30.9988 -30.6486 -30.0759 -29.7645 -29.6483 -28.8276 -28.1911
   -27.8612 -27.3670 -26.9986 -26.4998 -25.8362 -24.8879 -23.9859 -23.3182
   -22.7105 -21.5709 -20.6554 -20.1000 -19.6457 -19.5263 -18.7860 -18.4924
   -17.7709 -17.7274 -16.7154 -16.4774 -16.1882 -15.7808 -15.6290 -15.3235
   -15.2202 -14.4690 -14.3712 -14.2873 -14.1303 -13.2770 -13.0453 -12.7172
   -12.4958 -12.1361 -11.6673 -11.4152 -11.2779 -11.0349 -10.5183 -10.2726
   -10.1877 -10.0963  -9.8050  -9.2904  -9.2323  -8.9869  -8.9572  -8.7028
    -8.4570  -8.1732  -8.0126  -7.8292  -7.3994  -7.0929  -6.9814  -6.7288
    -6.6570  -6.5621  -6.1698  -6.1501  -5.9665  -5.7556  -5.2830  -4.9878
    -4.9018  -4.6679  -4.5549  -4.4419  -4.2400  -4.1291  -3.8912  -3.6856
    -3.5610  -3.2904  -3.1441  -3.0448  -2.8487  -2.4903  -2.3221  -2.1539
    -2.0278  -1.8932  -1.6540  -1.4883  -1.3381  -1.2281  -0.8558  -0.6598
    -0.5504  -0.5264  -0.3003  -0.1352   0.1402   0.2262   0.4599   0.6729
     0.7998   0.8586   1.1299   1.3187   1.4548   1.7245   1.9346   1.9974
     2.1841   2.2171   2.5339   2.6488   2.7788   3.2340   3.2914   3.4711
     3.6388   3.7834   3.8093   4.0906   4.2323   4.2750   4.4719   4.6229
     4.7639   4.9669   5.4141   5.5224   5.6789   5.8949   5.9498   6.1863
     6.3319   6.8717   7.0953   7.5668   7.7861   7.9252   8.1502   8.5886
     8.7823   8.8128   9.1110   9.3112   9.7716   9.9848  10.3020  10.3115
    10.6378  10.8044  10.8271  10.9873  11.1240  11.3401  11.4805  11.5633
    11.5949  11.8641  11.9518  12.0586  12.1741  12.2486  12.3428  12.3920
    12.4933  12.5153  12.5757  12.6461  12.6558  12.7134  12.8130  12.8662
    12.8956  12.9492  13.0653  13.1390

     occupation numbers 
     1.0000   1.0000   1.0000   1.0000   1.0000   1.0000   1.0000   1.0000
     1.0000   1.0000   1.0000   1.0000   1.0000   1.0000   1.0000   1.0000
     1.0000   1.0000   1.0000   1.0000   1.0000   1.0000   1.0000   1.0000
     1.0000   1.0000   1.0000   1.0000   1.0000   1.0000   1.0000   1.0000
     1.0000   1.0000   1.0000   1.0000   1.0000   1.0000   1.0000   1.0000
     1.0000   1.0000   1.0000   1.0000   1.0000   1.0000   1.0000   1.0000
     1.0000   1.0000   1.0000   1.0000   1.0000   1.0000   1.0000   1.0000
     1.0000   1.0000   1.0000   1.0000   1.0000   1.0000   1.0000   1.0000
     1.0000   1.0000   1.0000   1.0000   1.0000   1.0000   1.0000   1.0000
     1.0000   1.0000   1.0000   1.0000   1.0000   1.0000   1.0000   1.0000
     1.0000   1.0000   1.0000   1.0000   1.0000   1.0000   1.0000   1.0000
     1.0000   1.0000   1.0000   1.0000   1.0000   1.0000   1.0000   1.0000
     1.0000   1.0000   1.0000   1.0000   1.0000   1.0000   1.0000   1.0000
     1.0000   1.0000   1.0000   1.0000   1.0000   1.0000   1.0000   1.0000
     1.0000   1.0000   1.0000   1.0000   1.0000   1.0000   1.0000   1.0000
     1.0000   1.0000   1.0000   1.0000   1.0000   1.0000   1.0000   1.0000
     1.0000   1.0000   1.0000   1.0000   1.0000   1.0000   1.0000   1.0000
     1.0000   1.0000   1.0000   1.0000   1.0000   1.0000   1.0000   1.0000
     1.0000   1.0000   1.0000   1.0000   1.0000   1.0000   1.0000   1.0000
     1.0000   1.0000   1.0000   1.0000   1.0000   1.0000   1.0000   1.0000
     1.0000   1.0000   1.0000   1.0000   1.0000   1.0000   1.0000   1.0000
     1.0000   1.0000   1.0000   1.0000   1.0000   1.0000   1.0000   1.0000
     1.0000   1.0000   1.0000   1.0000   1.0000   1.0000   1.0000   1.0000
     1.0000   1.0000   1.0000   1.0000   1.0000   1.0000   1.0000   1.0000
     1.0000   1.0000   1.0000   1.0000   1.0000   1.0000   1.0000   1.0000
     1.0000   1.0000   1.0000   1.0000   1.0000   1.0000   1.0000   1.0000
     1.0000   1.0000   1.0000   1.0000   1.0000   1.0000   1.0000   1.0000
     1.0000   1.0000   1.0000   1.0000   1.0000   1.0000   1.0000   1.0000
     1.0000   1.0000   1.0000   1.0000   1.0000   1.0000   1.0000   1.0000
     1.0000   1.0000   1.0000   1.0000   1.0000   1.0000   1.0000   1.0000
     1.0000   1.0006   1.0091   0.6987   0.1855   0.0048   0.0013   0.0000
     0.0000   0.0000   0.0000   0.0000   0.0000   0.0000   0.0000   0.0000
     0.0000   0.0000   0.0000   0.0000   0.0000   0.0000   0.0000   0.0000
     0.0000   0.0000   0.0000   0.0000   0.0000   0.0000   0.0000   0.0000
     0.0000   0.0000   0.0000   0.0000   0.0000   0.0000   0.0000   0.0000
     0.0000   0.0000   0.0000   0.0000   0.0000   0.0000   0.0000   0.0000
     0.0000   0.0000   0.0000   0.0000

          k = 0.0000 0.0000-0.2282 ( 25264 PWs)   bands (ev):

  -186.2997-184.5385-176.3586-176.1449-138.6639-134.5429-122.6483-122.3526
  -121.3660-119.1336-117.7773-117.2748-115.8679-115.2134-114.5220-112.8522
  -111.5478-111.1633-108.7842-108.2252-107.5916-106.6554-106.2127-104.7785
  -104.5226-103.8507-103.7243-103.4801-102.7102-102.1491-101.8421-101.2700
  -100.3908 -98.9613 -98.4069 -92.6648 -90.3925 -87.4611 -87.0534 -85.3955
   -83.8694 -83.0369 -82.3583 -81.9930 -81.1954 -80.3966 -79.4170 -78.5277
   -77.3974 -76.6386 -75.2850 -74.9642 -73.9828 -73.7125 -73.1335 -72.1926
   -71.9071 -71.7221 -71.5721 -71.4343 -71.2540 -71.0905 -70.5393 -70.3073
   -69.8585 -69.6619 -69.2568 -69.0518 -68.6769 -68.5328 -68.3798 -68.1341
   -67.9782 -67.2516 -67.1351 -66.2508 -66.0166 -65.5915 -65.3707 -65.2840
   -64.9155 -64.7321 -64.5596 -64.3806 -64.2612 -63.4531 -63.3846 -63.3077
   -62.9340 -62.8497 -62.6110 -62.4795 -62.2442 -61.6181 -60.9959 -60.6448
   -60.5459 -60.1422 -59.6773 -59.6556 -58.9321 -56.7408 -55.9618 -52.9086
   -38.3900 -38.1305 -37.5356 -36.9601 -34.4246 -33.9612 -32.8136 -31.7249
   -31.5128 -30.9985 -30.6482 -30.0759 -29.7644 -29.6483 -28.8274 -28.1910
   -27.8611 -27.3670 -26.9984 -26.4994 -25.8360 -24.8879 -23.9858 -23.3180
   -22.7105 -21.5706 -20.6554 -20.1000 -19.6458 -19.5263 -18.7859 -18.4923
   -17.7709 -17.7272 -16.7155 -16.4773 -16.1880 -15.7807 -15.6289 -15.3233
   -15.2203 -14.4690 -14.3712 -14.2872 -14.1301 -13.2770 -13.0452 -12.7172
   -12.4956 -12.1357 -11.6670 -11.4150 -11.2777 -11.0348 -10.5182 -10.2726
   -10.1877 -10.0962  -9.8047  -9.2903  -9.2322  -8.9867  -8.9572  -8.7027
    -8.4568  -8.1732  -8.0125  -7.8291  -7.3992  -7.0927  -6.9814  -6.7287
    -6.6569  -6.5619  -6.1696  -6.1501  -5.9664  -5.7553  -5.2829  -4.9877
    -4.9016  -4.6678  -4.5548  -4.4410  -4.2391  -4.1290  -3.8906  -3.6854
    -3.5607  -3.2901  -3.1436  -3.0445  -2.8482  -2.4902  -2.3221  -2.1535
    -2.0276  -1.8931  -1.6539  -1.4882  -1.3379  -1.2278  -0.8557  -0.6597
    -0.5502  -0.5263  -0.2999  -0.1352   0.1409   0.2263   0.4602   0.6733
     0.8005   0.8588   1.1299   1.3191   1.4550   1.7247   1.9349   1.9977
     2.1843   2.2171   2.5340   2.6492   2.7796   3.2345   3.2916   3.4714
     3.6391   3.7836   3.8095   4.0909   4.2334   4.2751   4.4719   4.6230
     4.7642   4.9680   5.4151   5.5225   5.6789   5.8951   5.9498   6.1864
     6.3320   6.8719   7.0954   7.5669   7.8089   7.9256   8.1563   8.4021
     8.7949   8.8826   9.2632   9.4896   9.7555   9.8098  10.2528  10.3079
    10.4411  10.6475  10.8516  11.0244  11.2161  11.3620  11.4979  11.5921
    11.8045  11.9034  12.0277  12.1444  12.1975  12.2082  12.2395  12.2859
    12.3262  12.3535  12.4618  12.4961  12.5273  12.7079  13.2041  13.2185
    13.2960  13.3300  13.3855  13.4229

     occupation numbers 
     1.0000   1.0000   1.0000   1.0000   1.0000   1.0000   1.0000   1.0000
     1.0000   1.0000   1.0000   1.0000   1.0000   1.0000   1.0000   1.0000
     1.0000   1.0000   1.0000   1.0000   1.0000   1.0000   1.0000   1.0000
     1.0000   1.0000   1.0000   1.0000   1.0000   1.0000   1.0000   1.0000
     1.0000   1.0000   1.0000   1.0000   1.0000   1.0000   1.0000   1.0000
     1.0000   1.0000   1.0000   1.0000   1.0000   1.0000   1.0000   1.0000
     1.0000   1.0000   1.0000   1.0000   1.0000   1.0000   1.0000   1.0000
     1.0000   1.0000   1.0000   1.0000   1.0000   1.0000   1.0000   1.0000
     1.0000   1.0000   1.0000   1.0000   1.0000   1.0000   1.0000   1.0000
     1.0000   1.0000   1.0000   1.0000   1.0000   1.0000   1.0000   1.0000
     1.0000   1.0000   1.0000   1.0000   1.0000   1.0000   1.0000   1.0000
     1.0000   1.0000   1.0000   1.0000   1.0000   1.0000   1.0000   1.0000
     1.0000   1.0000   1.0000   1.0000   1.0000   1.0000   1.0000   1.0000
     1.0000   1.0000   1.0000   1.0000   1.0000   1.0000   1.0000   1.0000
     1.0000   1.0000   1.0000   1.0000   1.0000   1.0000   1.0000   1.0000
     1.0000   1.0000   1.0000   1.0000   1.0000   1.0000   1.0000   1.0000
     1.0000   1.0000   1.0000   1.0000   1.0000   1.0000   1.0000   1.0000
     1.0000   1.0000   1.0000   1.0000   1.0000   1.0000   1.0000   1.0000
     1.0000   1.0000   1.0000   1.0000   1.0000   1.0000   1.0000   1.0000
     1.0000   1.0000   1.0000   1.0000   1.0000   1.0000   1.0000   1.0000
     1.0000   1.0000   1.0000   1.0000   1.0000   1.0000   1.0000   1.0000
     1.0000   1.0000   1.0000   1.0000   1.0000   1.0000   1.0000   1.0000
     1.0000   1.0000   1.0000   1.0000   1.0000   1.0000   1.0000   1.0000
     1.0000   1.0000   1.0000   1.0000   1.0000   1.0000   1.0000   1.0000
     1.0000   1.0000   1.0000   1.0000   1.0000   1.0000   1.0000   1.0000
     1.0000   1.0000   1.0000   1.0000   1.0000   1.0000   1.0000   1.0000
     1.0000   1.0000   1.0000   1.0000   1.0000   1.0000   1.0000   1.0000
     1.0000   1.0000   1.0000   1.0000   1.0000   1.0000   1.0000   1.0000
     1.0000   1.0000   1.0000   1.0000   1.0000   1.0000   1.0000   1.0000
     1.0000   1.0000   1.0000   1.0000   1.0000   1.0000   1.0000   1.0000
     1.0000   1.0007   1.0074   0.6982   0.1856   0.0048   0.0013   0.0000
     0.0000   0.0000   0.0000   0.0000   0.0000   0.0000   0.0000   0.0000
     0.0000   0.0000   0.0000   0.0000   0.0000   0.0000   0.0000   0.0000
     0.0000   0.0000   0.0000   0.0000   0.0000   0.0000   0.0000   0.0000
     0.0000   0.0000   0.0000   0.0000   0.0000   0.0000   0.0000   0.0000
     0.0000   0.0000   0.0000   0.0000   0.0000   0.0000   0.0000   0.0000
     0.0000   0.0000   0.0000   0.0000

          k = 0.0000-0.5774 0.0000 ( 25312 PWs)   bands (ev):

  -186.2999-184.5387-176.3587-176.1450-138.6640-134.5430-122.6414-122.3660
  -121.3583-119.1313-117.7969-117.2388-115.8785-115.2677-114.4789-112.8521
  -111.5620-111.1641-108.7795-108.1322-107.6115-106.6557-106.2592-104.8090
  -104.4849-103.8918-103.8231-103.4738-102.6563-102.1717-101.5702-101.4962
  -100.3581 -98.9422 -98.3908 -92.9088 -89.9204 -87.5729 -87.2102 -85.4937
   -83.7170 -83.3149 -82.3031 -81.9924 -81.1547 -80.0272 -79.8251 -78.2450
   -77.3765 -76.5276 -75.2760 -74.9214 -74.1050 -73.7978 -73.2383 -72.4615
   -72.0881 -71.7340 -71.6110 -71.4278 -71.0665 -70.8341 -70.6009 -70.3565
   -69.8487 -69.6294 -69.2021 -68.6690 -68.5438 -68.3890 -68.3794 -68.1708
   -67.9477 -67.9027 -67.2476 -66.3912 -66.0197 -65.6035 -65.3921 -65.2791
   -64.7301 -64.5772 -64.4295 -64.3238 -64.1498 -63.6479 -63.3586 -63.2997
   -62.9712 -62.8662 -62.5497 -62.4203 -62.1637 -61.6156 -61.2945 -60.8393
   -60.4791 -60.1861 -59.7806 -59.3840 -58.7980 -56.9317 -55.8649 -52.9153
   -38.3880 -38.1186 -37.5414 -36.9595 -34.4308 -33.9702 -32.8651 -31.7248
   -31.5440 -30.9877 -30.6204 -30.0468 -29.7819 -29.5391 -28.7826 -28.2767
   -27.8227 -27.3675 -27.0010 -26.5046 -25.8327 -24.8942 -23.7201 -23.2636
   -22.8494 -21.6170 -21.1920 -20.1523 -19.6205 -19.2978 -18.8416 -18.4065
   -17.6895 -17.4615 -17.3355 -16.6032 -16.3927 -15.7623 -15.4366 -15.2086
   -14.7652 -14.4877 -14.3209 -14.0074 -13.7905 -13.7146 -13.3081 -12.8149
   -12.5414 -12.1775 -11.7014 -11.4536 -11.3186 -11.1079 -10.5414 -10.3425
   -10.1231  -9.8349  -9.5630  -9.3343  -9.1290  -8.8457  -8.6614  -8.4539
    -8.2827  -8.1607  -7.9641  -7.6133  -7.4839  -7.2845  -6.9932  -6.8323
    -6.7491  -6.6643  -6.5086  -6.2937  -6.2564  -5.7413  -5.6235  -5.0030
    -4.9854  -4.7589  -4.5744  -4.5236  -4.3836  -4.2177  -3.9670  -3.5253
    -3.2114  -3.0823  -3.0024  -2.9138  -2.6008  -2.5861  -2.4074  -2.2013
    -2.1210  -1.8637  -1.7096  -1.6232  -1.4103  -1.2488  -1.0011  -0.6989
    -0.4142  -0.2992  -0.1636  -0.1354   0.0393   0.2069   0.4695   0.6431
     0.8275   0.9101   1.0137   1.3431   1.4054   1.5026   1.9002   2.0435
     2.1296   2.3772   2.6271   2.7363   2.7983   3.0321   3.1207   3.4850
     3.5244   3.7065   3.9186   4.2677   4.3061   4.5524   4.9866   5.1802
     5.2716   5.3548   5.4148   5.6278   5.8826   5.9372   5.9883   6.3941
     6.5335   6.6120   6.9590   7.2029   7.3332   7.6073   7.7016   8.0247
     8.2403   8.6220   8.8353   9.3826   9.4755   9.5193   9.6962   9.7551
    10.0160  10.1604  10.4237  10.5667  10.7924  10.8186  10.9215  11.4140
    11.5206  11.5432  11.6246  11.7740  11.8663  11.9582  11.9712  12.1953
    12.4440  12.5872  12.6250  12.7811  13.1399  13.3949  13.7209  13.8586
    13.9561  14.0198  14.2516  14.3454

     occupation numbers 
     1.0000   1.0000   1.0000   1.0000   1.0000   1.0000   1.0000   1.0000
     1.0000   1.0000   1.0000   1.0000   1.0000   1.0000   1.0000   1.0000
     1.0000   1.0000   1.0000   1.0000   1.0000   1.0000   1.0000   1.0000
     1.0000   1.0000   1.0000   1.0000   1.0000   1.0000   1.0000   1.0000
     1.0000   1.0000   1.0000   1.0000   1.0000   1.0000   1.0000   1.0000
     1.0000   1.0000   1.0000   1.0000   1.0000   1.0000   1.0000   1.0000
     1.0000   1.0000   1.0000   1.0000   1.0000   1.0000   1.0000   1.0000
     1.0000   1.0000   1.0000   1.0000   1.0000   1.0000   1.0000   1.0000
     1.0000   1.0000   1.0000   1.0000   1.0000   1.0000   1.0000   1.0000
     1.0000   1.0000   1.0000   1.0000   1.0000   1.0000   1.0000   1.0000
     1.0000   1.0000   1.0000   1.0000   1.0000   1.0000   1.0000   1.0000
     1.0000   1.0000   1.0000   1.0000   1.0000   1.0000   1.0000   1.0000
     1.0000   1.0000   1.0000   1.0000   1.0000   1.0000   1.0000   1.0000
     1.0000   1.0000   1.0000   1.0000   1.0000   1.0000   1.0000   1.0000
     1.0000   1.0000   1.0000   1.0000   1.0000   1.0000   1.0000   1.0000
     1.0000   1.0000   1.0000   1.0000   1.0000   1.0000   1.0000   1.0000
     1.0000   1.0000   1.0000   1.0000   1.0000   1.0000   1.0000   1.0000
     1.0000   1.0000   1.0000   1.0000   1.0000   1.0000   1.0000   1.0000
     1.0000   1.0000   1.0000   1.0000   1.0000   1.0000   1.0000   1.0000
     1.0000   1.0000   1.0000   1.0000   1.0000   1.0000   1.0000   1.0000
     1.0000   1.0000   1.0000   1.0000   1.0000   1.0000   1.0000   1.0000
     1.0000   1.0000   1.0000   1.0000   1.0000   1.0000   1.0000   1.0000
     1.0000   1.0000   1.0000   1.0000   1.0000   1.0000   1.0000   1.0000
     1.0000   1.0000   1.0000   1.0000   1.0000   1.0000   1.0000   1.0000
     1.0000   1.0000   1.0000   1.0000   1.0000   1.0000   1.0000   1.0000
     1.0000   1.0000   1.0000   1.0000   1.0000   1.0000   1.0000   1.0000
     1.0000   1.0000   1.0000   1.0000   1.0000   1.0000   1.0000   1.0000
     1.0000   1.0000   1.0000   1.0000   1.0000   1.0000   1.0000   1.0000
     1.0000   1.0000   1.0000   1.0000   1.0000   1.0000   1.0000   1.0000
     1.0000   1.0000   1.0000   1.0000   1.0000   1.0000   1.0010   1.0317
     1.0721   1.0751   1.0079   0.3209   0.0063   0.0018   0.0005   0.0000
     0.0000   0.0000   0.0000   0.0000   0.0000   0.0000   0.0000   0.0000
     0.0000   0.0000   0.0000   0.0000   0.0000   0.0000   0.0000   0.0000
     0.0000   0.0000   0.0000   0.0000   0.0000   0.0000   0.0000   0.0000
     0.0000   0.0000   0.0000   0.0000   0.0000   0.0000   0.0000   0.0000
     0.0000   0.0000   0.0000   0.0000   0.0000   0.0000   0.0000   0.0000
     0.0000   0.0000   0.0000   0.0000

          k = 0.0000-0.5774-0.2282 ( 25280 PWs)   bands (ev):

  -186.2999-184.5386-176.3586-176.1449-138.6639-134.5428-122.6414-122.3659
  -121.3583-119.1313-117.7969-117.2388-115.8785-115.2677-114.4789-112.8522
  -111.5620-111.1641-108.7795-108.1321-107.6115-106.6556-106.2592-104.8090
  -104.4849-103.8917-103.8230-103.4738-102.6563-102.1716-101.5702-101.4961
  -100.3582 -98.9422 -98.3909 -92.9087 -89.9203 -87.5728 -87.2102 -85.4936
   -83.7169 -83.3147 -82.3030 -81.9922 -81.1546 -80.0272 -79.8250 -78.2448
   -77.3765 -76.5275 -75.2758 -74.9213 -74.1050 -73.7978 -73.2383 -72.4614
   -72.0881 -71.7339 -71.6109 -71.4278 -71.0664 -70.8341 -70.6011 -70.3565
   -69.8486 -69.6296 -69.2020 -68.6689 -68.5437 -68.3890 -68.3793 -68.1708
   -67.9477 -67.9027 -67.2475 -66.3910 -66.0198 -65.6036 -65.3920 -65.2791
   -64.7304 -64.5776 -64.4295 -64.3239 -64.1498 -63.6479 -63.3587 -63.2998
   -62.9712 -62.8661 -62.5497 -62.4203 -62.1637 -61.6156 -61.2943 -60.8390
   -60.4787 -60.1858 -59.7803 -59.3839 -58.7979 -56.9315 -55.8646 -52.9151
   -38.3875 -38.1183 -37.5407 -36.9591 -34.4310 -33.9703 -32.8644 -31.7247
   -31.5437 -30.9875 -30.6204 -30.0468 -29.7818 -29.5390 -28.7825 -28.2764
   -27.8226 -27.3675 -27.0009 -26.5046 -25.8324 -24.8939 -23.7201 -23.2635
   -22.8492 -21.6170 -21.1918 -20.1523 -19.6203 -19.2975 -18.8415 -18.4064
   -17.6894 -17.4611 -17.3354 -16.6032 -16.3928 -15.7623 -15.4365 -15.2085
   -14.7648 -14.4874 -14.3209 -14.0072 -13.7903 -13.7145 -13.3078 -12.8148
   -12.5416 -12.1774 -11.7012 -11.4535 -11.3188 -11.1080 -10.5413 -10.3424
   -10.1230  -9.8347  -9.5630  -9.3342  -9.1293  -8.8457  -8.6613  -8.4540
    -8.2828  -8.1606  -7.9642  -7.6133  -7.4839  -7.2846  -6.9932  -6.8323
    -6.7492  -6.6644  -6.5085  -6.2936  -6.2563  -5.7413  -5.6234  -5.0029
    -4.9852  -4.7585  -4.5748  -4.5236  -4.3835  -4.2176  -3.9672  -3.5253
    -3.2113  -3.0821  -3.0024  -2.9137  -2.6010  -2.5862  -2.4075  -2.2013
    -2.1210  -1.8636  -1.7094  -1.6233  -1.4103  -1.2488  -1.0012  -0.6988
    -0.4141  -0.2992  -0.1635  -0.1350   0.0395   0.2070   0.4695   0.6431
     0.8277   0.9101   1.0137   1.3429   1.4056   1.5025   1.9002   2.0434
     2.1299   2.3771   2.6269   2.7366   2.7984   3.0321   3.1208   3.4854
     3.5239   3.7056   3.9184   4.2678   4.3061   4.5524   4.9867   5.1800
     5.2715   5.3550   5.4150   5.6278   5.8830   5.9372   5.9887   6.3941
     6.5336   6.6121   6.9591   7.2030   7.3333   7.6072   7.7018   8.0250
     8.2449   8.6299   8.8572   9.3125   9.3856   9.4732   9.5632   9.9669
    10.1509  10.3942  10.5377  10.6327  10.7454  10.7877  10.8631  11.0749
    11.3284  11.4093  11.4889  11.5744  11.7375  12.0003  12.4114  12.4409
    12.5567  12.5969  12.8464  12.9883  13.2135  13.3615  13.4568  13.6564
    13.9702  14.0645  14.2393  14.3585

     occupation numbers 
     1.0000   1.0000   1.0000   1.0000   1.0000   1.0000   1.0000   1.0000
     1.0000   1.0000   1.0000   1.0000   1.0000   1.0000   1.0000   1.0000
     1.0000   1.0000   1.0000   1.0000   1.0000   1.0000   1.0000   1.0000
     1.0000   1.0000   1.0000   1.0000   1.0000   1.0000   1.0000   1.0000
     1.0000   1.0000   1.0000   1.0000   1.0000   1.0000   1.0000   1.0000
     1.0000   1.0000   1.0000   1.0000   1.0000   1.0000   1.0000   1.0000
     1.0000   1.0000   1.0000   1.0000   1.0000   1.0000   1.0000   1.0000
     1.0000   1.0000   1.0000   1.0000   1.0000   1.0000   1.0000   1.0000
     1.0000   1.0000   1.0000   1.0000   1.0000   1.0000   1.0000   1.0000
     1.0000   1.0000   1.0000   1.0000   1.0000   1.0000   1.0000   1.0000
     1.0000   1.0000   1.0000   1.0000   1.0000   1.0000   1.0000   1.0000
     1.0000   1.0000   1.0000   1.0000   1.0000   1.0000   1.0000   1.0000
     1.0000   1.0000   1.0000   1.0000   1.0000   1.0000   1.0000   1.0000
     1.0000   1.0000   1.0000   1.0000   1.0000   1.0000   1.0000   1.0000
     1.0000   1.0000   1.0000   1.0000   1.0000   1.0000   1.0000   1.0000
     1.0000   1.0000   1.0000   1.0000   1.0000   1.0000   1.0000   1.0000
     1.0000   1.0000   1.0000   1.0000   1.0000   1.0000   1.0000   1.0000
     1.0000   1.0000   1.0000   1.0000   1.0000   1.0000   1.0000   1.0000
     1.0000   1.0000   1.0000   1.0000   1.0000   1.0000   1.0000   1.0000
     1.0000   1.0000   1.0000   1.0000   1.0000   1.0000   1.0000   1.0000
     1.0000   1.0000   1.0000   1.0000   1.0000   1.0000   1.0000   1.0000
     1.0000   1.0000   1.0000   1.0000   1.0000   1.0000   1.0000   1.0000
     1.0000   1.0000   1.0000   1.0000   1.0000   1.0000   1.0000   1.0000
     1.0000   1.0000   1.0000   1.0000   1.0000   1.0000   1.0000   1.0000
     1.0000   1.0000   1.0000   1.0000   1.0000   1.0000   1.0000   1.0000
     1.0000   1.0000   1.0000   1.0000   1.0000   1.0000   1.0000   1.0000
     1.0000   1.0000   1.0000   1.0000   1.0000   1.0000   1.0000   1.0000
     1.0000   1.0000   1.0000   1.0000   1.0000   1.0000   1.0000   1.0000
     1.0000   1.0000   1.0000   1.0000   1.0000   1.0000   1.0000   1.0000
     1.0000   1.0000   1.0000   1.0000   1.0000   1.0000   1.0010   1.0316
     1.0721   1.0750   1.0077   0.3211   0.0062   0.0018   0.0005   0.0000
     0.0000   0.0000   0.0000   0.0000   0.0000   0.0000   0.0000   0.0000
     0.0000   0.0000   0.0000   0.0000   0.0000   0.0000   0.0000   0.0000
     0.0000   0.0000   0.0000   0.0000   0.0000   0.0000   0.0000   0.0000
     0.0000   0.0000   0.0000   0.0000   0.0000   0.0000   0.0000   0.0000
     0.0000   0.0000   0.0000   0.0000   0.0000   0.0000   0.0000   0.0000
     0.0000   0.0000   0.0000   0.0000

          k = 0.5000-0.2887 0.0000 ( 25312 PWs)   bands (ev):

  -186.2998-184.5386-176.3587-176.1449-138.6638-134.5430-122.6417-122.3607
  -121.3667-119.1375-117.7677-117.2624-115.8479-115.2652-114.5242-112.8548
  -111.4892-111.1657-108.8700-108.3437-107.3079-106.9634-105.9880-104.7419
  -104.4005-103.8991-103.6293-103.3726-103.0439-102.4728-101.7204-101.1505
  -100.2955 -98.8880 -98.5358 -92.6043 -90.2921 -87.4873 -87.1112 -85.5840
   -84.2773 -83.0446 -82.0952 -81.9923 -80.6807 -80.1158 -79.6128 -78.1656
   -77.4052 -76.2934 -75.8322 -75.4625 -74.4102 -73.8971 -72.9604 -72.7457
   -72.1056 -71.9002 -71.5209 -71.2748 -71.1093 -71.0538 -70.4144 -70.2484
   -69.6815 -69.2258 -69.0866 -69.0602 -68.8030 -68.7029 -68.3130 -67.9054
   -67.5973 -67.3288 -67.0201 -66.0066 -65.6123 -65.3412 -65.2769 -65.2186
   -65.1049 -64.6451 -64.5420 -64.1998 -64.1427 -63.5608 -63.4809 -63.3146
   -63.3007 -62.9099 -62.7573 -62.6258 -62.4911 -61.9445 -61.6084 -61.4144
   -61.0219 -60.4916 -59.3252 -58.5213 -58.2826 -56.4176 -56.2836 -52.9430
   -38.4006 -38.1380 -37.5566 -36.9590 -34.4217 -33.9818 -32.7674 -31.7084
   -31.5435 -31.0007 -30.6689 -30.0190 -29.7319 -29.6226 -28.8187 -28.3601
   -27.7686 -27.3807 -27.1709 -26.4810 -25.9061 -24.9183 -23.8867 -23.1716
   -22.9655 -21.6037 -20.4788 -20.0423 -19.5911 -19.4686 -18.7013 -18.0289
   -17.7668 -17.3226 -16.9679 -16.4332 -16.1702 -15.7391 -15.5076 -15.3325
   -15.1855 -15.1410 -14.5924 -14.4207 -13.9731 -13.6265 -13.2498 -12.4921
   -12.4678 -12.1912 -11.9451 -11.6091 -11.3663 -11.3184 -10.8590 -10.7334
   -10.1549  -9.9169  -9.7813  -9.3431  -9.1749  -8.6231  -8.2856  -8.1375
    -8.0945  -8.0289  -7.8066  -7.7349  -7.5026  -7.0954  -6.9047  -6.7913
    -6.5862  -6.4155  -6.2619  -6.1437  -5.7927  -5.6514  -5.5228  -5.4054
    -4.9563  -4.7361  -4.6800  -4.5606  -4.3870  -4.1163  -3.9658  -3.7297
    -3.5199  -3.3876  -3.0569  -2.8861  -2.7525  -2.6289  -2.4154  -2.1174
    -1.9452  -1.6578  -1.5629  -1.4822  -1.3089  -1.1343  -1.0711  -0.9921
    -0.5268  -0.4530  -0.2589  -0.0506   0.1943   0.3876   0.4601   0.5501
     0.7835   0.9060   1.0289   1.2306   1.4531   1.5391   1.7919   2.0079
     2.2193   2.2658   2.5431   2.7150   2.9760   3.1524   3.2919   3.3187
     3.3546   3.6561   3.7828   3.8537   4.1041   4.3293   4.5868   4.7597
     5.0770   5.3667   5.6654   5.8926   6.0690   6.1260   6.2537   6.3870
     6.6175   6.7092   6.9962   7.1365   7.7331   7.8981   8.0222   8.2427
     8.5667   8.9100   8.9917   9.0763   9.2907   9.4345   9.5723   9.6656
     9.7217   9.9268  10.1254  10.1980  10.6190  10.6719  11.0887  11.3573
    11.4134  11.5211  11.6877  11.8253  11.9040  11.9514  12.0429  12.2038
    12.3787  12.5648  12.8027  13.0215  13.3177  13.6053  13.8009  13.8193
    14.2959  14.3470  14.4908  14.6984

     occupation numbers 
     1.0000   1.0000   1.0000   1.0000   1.0000   1.0000   1.0000   1.0000
     1.0000   1.0000   1.0000   1.0000   1.0000   1.0000   1.0000   1.0000
     1.0000   1.0000   1.0000   1.0000   1.0000   1.0000   1.0000   1.0000
     1.0000   1.0000   1.0000   1.0000   1.0000   1.0000   1.0000   1.0000
     1.0000   1.0000   1.0000   1.0000   1.0000   1.0000   1.0000   1.0000
     1.0000   1.0000   1.0000   1.0000   1.0000   1.0000   1.0000   1.0000
     1.0000   1.0000   1.0000   1.0000   1.0000   1.0000   1.0000   1.0000
     1.0000   1.0000   1.0000   1.0000   1.0000   1.0000   1.0000   1.0000
     1.0000   1.0000   1.0000   1.0000   1.0000   1.0000   1.0000   1.0000
     1.0000   1.0000   1.0000   1.0000   1.0000   1.0000   1.0000   1.0000
     1.0000   1.0000   1.0000   1.0000   1.0000   1.0000   1.0000   1.0000
     1.0000   1.0000   1.0000   1.0000   1.0000   1.0000   1.0000   1.0000
     1.0000   1.0000   1.0000   1.0000   1.0000   1.0000   1.0000   1.0000
     1.0000   1.0000   1.0000   1.0000   1.0000   1.0000   1.0000   1.0000
     1.0000   1.0000   1.0000   1.0000   1.0000   1.0000   1.0000   1.0000
     1.0000   1.0000   1.0000   1.0000   1.0000   1.0000   1.0000   1.0000
     1.0000   1.0000   1.0000   1.0000   1.0000   1.0000   1.0000   1.0000
     1.0000   1.0000   1.0000   1.0000   1.0000   1.0000   1.0000   1.0000
     1.0000   1.0000   1.0000   1.0000   1.0000   1.0000   1.0000   1.0000
     1.0000   1.0000   1.0000   1.0000   1.0000   1.0000   1.0000   1.0000
     1.0000   1.0000   1.0000   1.0000   1.0000   1.0000   1.0000   1.0000
     1.0000   1.0000   1.0000   1.0000   1.0000   1.0000   1.0000   1.0000
     1.0000   1.0000   1.0000   1.0000   1.0000   1.0000   1.0000   1.0000
     1.0000   1.0000   1.0000   1.0000   1.0000   1.0000   1.0000   1.0000
     1.0000   1.0000   1.0000   1.0000   1.0000   1.0000   1.0000   1.0000
     1.0000   1.0000   1.0000   1.0000   1.0000   1.0000   1.0000   1.0000
     1.0000   1.0000   1.0000   1.0000   1.0000   1.0000   1.0000   1.0000
     1.0000   1.0000   1.0000   1.0000   1.0000   1.0000   1.0000   1.0000
     1.0000   1.0000   1.0000   1.0000   1.0000   1.0000   1.0000   1.0000
     1.0000   1.0000   1.0000   1.0000   1.0000   1.0000   1.0000   1.0000
     1.0066   1.0677   0.2170   0.0050   0.0000   0.0000   0.0000   0.0000
     0.0000   0.0000   0.0000   0.0000   0.0000   0.0000   0.0000   0.0000
     0.0000   0.0000   0.0000   0.0000   0.0000   0.0000   0.0000   0.0000
     0.0000   0.0000   0.0000   0.0000   0.0000   0.0000   0.0000   0.0000
     0.0000   0.0000   0.0000   0.0000   0.0000   0.0000   0.0000   0.0000
     0.0000   0.0000   0.0000   0.0000   0.0000   0.0000   0.0000   0.0000
     0.0000   0.0000   0.0000   0.0000

          k =-0.5000-0.2887 0.0000 ( 25312 PWs)   bands (ev):

  -186.2997-184.5385-176.3587-176.1449-138.6638-134.5431-122.6347-122.3740
  -121.3593-119.1330-117.7891-117.2277-115.8613-115.2958-114.5087-112.8544
  -111.4981-111.1575-108.8666-108.2205-107.4499-106.9370-105.9311-104.6696
  -104.4590-103.8875-103.8626-103.3905-103.0548-102.3642-101.7586-101.0772
  -100.2206 -98.8814 -98.5241 -92.8906 -89.8721 -87.4587 -87.3149 -85.7442
   -84.1138 -82.9747 -82.1963 -81.9919 -80.9964 -79.9358 -79.4419 -78.0896
   -77.3884 -76.4445 -75.6061 -75.3982 -74.7186 -73.9420 -73.1356 -72.6559
   -72.1128 -71.8984 -71.5383 -71.1048 -70.9969 -70.8078 -70.4746 -70.1468
   -69.6616 -69.5013 -69.2552 -69.0896 -68.7272 -68.6024 -68.3193 -67.9873
   -67.8215 -67.3519 -66.8716 -65.9594 -65.4812 -65.4538 -65.2714 -64.9904
   -64.9144 -64.6975 -64.5927 -64.4772 -64.1392 -64.0559 -63.5079 -63.3542
   -63.3011 -62.8834 -62.5962 -62.5186 -62.2213 -61.7704 -61.5948 -61.4517
   -60.9390 -60.7178 -59.1023 -58.7437 -58.2630 -56.5996 -56.1424 -52.9538
   -38.3985 -38.1288 -37.5429 -36.9598 -34.4287 -33.9825 -32.8269 -31.7427
   -31.5105 -31.0022 -30.6263 -29.9893 -29.8030 -29.6065 -28.7901 -28.3148
   -27.7168 -27.4661 -27.1754 -26.4878 -25.8080 -24.9459 -23.7956 -23.1767
   -22.8592 -21.5576 -21.0825 -20.1915 -19.5975 -19.3450 -18.4991 -18.1560
   -17.7743 -17.3516 -16.9763 -16.4568 -16.2255 -15.7408 -15.3640 -15.2356
   -15.0702 -14.8566 -14.7193 -14.0075 -13.8592 -13.5573 -13.3965 -12.9657
   -12.3877 -12.3429 -12.0452 -11.6852 -11.5897 -11.3036 -10.7344 -10.1876
   -10.0028  -9.8593  -9.5373  -9.2172  -9.1027  -8.8672  -8.7251  -8.5822
    -8.2139  -7.8278  -7.7625  -7.5024  -7.4374  -7.3284  -7.0924  -6.9429
    -6.8106  -6.6599  -6.2107  -6.1165  -5.8972  -5.7441  -5.7006  -5.3442
    -4.9425  -4.7833  -4.6090  -4.5119  -4.2245  -3.9860  -3.6335  -3.4470
    -3.4082  -3.1883  -2.8679  -2.7983  -2.7288  -2.5550  -2.1771  -2.1215
    -1.9741  -1.8363  -1.7624  -1.5921  -1.4372  -1.2260  -1.1148  -0.8688
    -0.5855  -0.4771  -0.1287  -0.1067   0.1719   0.2438   0.3656   0.5362
     0.6676   0.8804   0.9677   1.0663   1.2352   1.3867   1.6950   2.0522
     2.1379   2.2532   2.5534   2.8317   3.0830   3.3008   3.3274   3.6062
     3.6863   3.8466   3.8661   4.0373   4.2157   4.4544   4.6240   4.9230
     5.1925   5.2946   5.6896   5.8648   6.0296   6.1320   6.1949   6.4387
     6.5898   6.6946   6.7987   7.1182   7.5058   7.6516   8.1366   8.2723
     8.4821   8.6375   8.6501   8.9389   9.0246   9.3532   9.6295   9.6550
     9.9259  10.1065  10.1654  10.3881  10.4727  10.8517  11.1509  11.2236
    11.4188  11.5636  11.6134  11.8660  11.9150  11.9597  11.9649  12.1693
    12.4647  12.7156  12.7672  12.9657  13.0018  13.5745  13.7698  13.8951
    14.0084  14.2167  14.3184  14.3797

     occupation numbers 
     1.0000   1.0000   1.0000   1.0000   1.0000   1.0000   1.0000   1.0000
     1.0000   1.0000   1.0000   1.0000   1.0000   1.0000   1.0000   1.0000
     1.0000   1.0000   1.0000   1.0000   1.0000   1.0000   1.0000   1.0000
     1.0000   1.0000   1.0000   1.0000   1.0000   1.0000   1.0000   1.0000
     1.0000   1.0000   1.0000   1.0000   1.0000   1.0000   1.0000   1.0000
     1.0000   1.0000   1.0000   1.0000   1.0000   1.0000   1.0000   1.0000
     1.0000   1.0000   1.0000   1.0000   1.0000   1.0000   1.0000   1.0000
     1.0000   1.0000   1.0000   1.0000   1.0000   1.0000   1.0000   1.0000
     1.0000   1.0000   1.0000   1.0000   1.0000   1.0000   1.0000   1.0000
     1.0000   1.0000   1.0000   1.0000   1.0000   1.0000   1.0000   1.0000
     1.0000   1.0000   1.0000   1.0000   1.0000   1.0000   1.0000   1.0000
     1.0000   1.0000   1.0000   1.0000   1.0000   1.0000   1.0000   1.0000
     1.0000   1.0000   1.0000   1.0000   1.0000   1.0000   1.0000   1.0000
     1.0000   1.0000   1.0000   1.0000   1.0000   1.0000   1.0000   1.0000
     1.0000   1.0000   1.0000   1.0000   1.0000   1.0000   1.0000   1.0000
     1.0000   1.0000   1.0000   1.0000   1.0000   1.0000   1.0000   1.0000
     1.0000   1.0000   1.0000   1.0000   1.0000   1.0000   1.0000   1.0000
     1.0000   1.0000   1.0000   1.0000   1.0000   1.0000   1.0000   1.0000
     1.0000   1.0000   1.0000   1.0000   1.0000   1.0000   1.0000   1.0000
     1.0000   1.0000   1.0000   1.0000   1.0000   1.0000   1.0000   1.0000
     1.0000   1.0000   1.0000   1.0000   1.0000   1.0000   1.0000   1.0000
     1.0000   1.0000   1.0000   1.0000   1.0000   1.0000   1.0000   1.0000
     1.0000   1.0000   1.0000   1.0000   1.0000   1.0000   1.0000   1.0000
     1.0000   1.0000   1.0000   1.0000   1.0000   1.0000   1.0000   1.0000
     1.0000   1.0000   1.0000   1.0000   1.0000   1.0000   1.0000   1.0000
     1.0000   1.0000   1.0000   1.0000   1.0000   1.0000   1.0000   1.0000
     1.0000   1.0000   1.0000   1.0000   1.0000   1.0000   1.0000   1.0000
     1.0000   1.0000   1.0000   1.0000   1.0000   1.0000   1.0000   1.0000
     1.0000   1.0000   1.0000   1.0000   1.0000   1.0000   1.0000   1.0000
     1.0000   1.0000   1.0000   1.0000   1.0000   1.0000   1.0000   1.0002
     1.0366   1.0797   0.1630   0.0091   0.0002   0.0000   0.0000   0.0000
     0.0000   0.0000   0.0000   0.0000   0.0000   0.0000   0.0000   0.0000
     0.0000   0.0000   0.0000   0.0000   0.0000   0.0000   0.0000   0.0000
     0.0000   0.0000   0.0000   0.0000   0.0000   0.0000   0.0000   0.0000
     0.0000   0.0000   0.0000   0.0000   0.0000   0.0000   0.0000   0.0000
     0.0000   0.0000   0.0000   0.0000   0.0000   0.0000   0.0000   0.0000
     0.0000   0.0000   0.0000   0.0000

          k = 0.5000-0.2887-0.2282 ( 25280 PWs)   bands (ev):

  -186.2998-184.5385-176.3586-176.1448-138.6637-134.5429-122.6417-122.3606
  -121.3667-119.1375-117.7677-117.2624-115.8479-115.2651-114.5241-112.8547
  -111.4891-111.1656-108.8700-108.3436-107.3079-106.9634-105.9879-104.7419
  -104.4004-103.8989-103.6292-103.3725-103.0439-102.4728-101.7204-101.1505
  -100.2954 -98.8879 -98.5357 -92.6041 -90.2920 -87.4873 -87.1111 -85.5840
   -84.2772 -83.0445 -82.0951 -81.9922 -80.6806 -80.1158 -79.6127 -78.1655
   -77.4049 -76.2934 -75.8320 -75.4626 -74.4101 -73.8971 -72.9603 -72.7457
   -72.1056 -71.9002 -71.5208 -71.2747 -71.1093 -71.0538 -70.4143 -70.2482
   -69.6812 -69.2257 -69.0865 -69.0602 -68.8031 -68.7028 -68.3130 -67.9054
   -67.5973 -67.3288 -67.0200 -66.0065 -65.6123 -65.3412 -65.2766 -65.2184
   -65.1048 -64.6446 -64.5419 -64.1996 -64.1423 -63.5608 -63.4808 -63.3145
   -63.3006 -62.9099 -62.7573 -62.6258 -62.4910 -61.9443 -61.6083 -61.4143
   -61.0218 -60.4916 -59.3253 -58.5211 -58.2825 -56.4176 -56.2836 -52.9428
   -38.4003 -38.1375 -37.5552 -36.9589 -34.4216 -33.9814 -32.7668 -31.7083
   -31.5429 -31.0006 -30.6686 -30.0188 -29.7317 -29.6226 -28.8185 -28.3599
   -27.7685 -27.3805 -27.1708 -26.4809 -25.9058 -24.9182 -23.8865 -23.1715
   -22.9652 -21.6037 -20.4786 -20.0420 -19.5910 -19.4684 -18.7012 -18.0288
   -17.7667 -17.3225 -16.9677 -16.4331 -16.1702 -15.7390 -15.5076 -15.3324
   -15.1854 -15.1409 -14.5923 -14.4207 -13.9730 -13.6264 -13.2496 -12.4919
   -12.4678 -12.1910 -11.9448 -11.6091 -11.3664 -11.3180 -10.8587 -10.7324
   -10.1545  -9.9168  -9.7813  -9.3431  -9.1748  -8.6231  -8.2855  -8.1375
    -8.0945  -8.0288  -7.8066  -7.7349  -7.5026  -7.0954  -6.9047  -6.7913
    -6.5863  -6.4154  -6.2619  -6.1437  -5.7927  -5.6516  -5.5227  -5.4049
    -4.9562  -4.7362  -4.6799  -4.5605  -4.3871  -4.1160  -3.9655  -3.7296
    -3.5199  -3.3875  -3.0566  -2.8860  -2.7525  -2.6290  -2.4154  -2.1171
    -1.9450  -1.6578  -1.5628  -1.4819  -1.3091  -1.1342  -1.0703  -0.9920
    -0.5266  -0.4529  -0.2585  -0.0504   0.1943   0.3882   0.4602   0.5502
     0.7836   0.9061   1.0292   1.2306   1.4533   1.5391   1.7919   2.0080
     2.2194   2.2661   2.5432   2.7150   2.9760   3.1520   3.2919   3.3190
     3.3552   3.6561   3.7829   3.8536   4.1045   4.3296   4.5869   4.7600
     5.0771   5.3675   5.6657   5.8930   6.0691   6.1262   6.2538   6.3871
     6.6176   6.7092   6.9962   7.1368   7.7332   7.8982   8.0228   8.2448
     8.5684   8.9284   9.0105   9.0866   9.3258   9.3762   9.4382   9.5257
     9.6851  10.0023  10.4469  10.5459  10.6258  10.6616  11.0974  11.1721
    11.2291  11.2945  11.3670  11.4783  11.7106  12.1210  12.4328  12.5098
    12.5525  12.8055  12.9831  13.0622  13.4342  13.4825  13.5653  13.7583
    14.0516  14.1936  14.4879  14.6862

     occupation numbers 
     1.0000   1.0000   1.0000   1.0000   1.0000   1.0000   1.0000   1.0000
     1.0000   1.0000   1.0000   1.0000   1.0000   1.0000   1.0000   1.0000
     1.0000   1.0000   1.0000   1.0000   1.0000   1.0000   1.0000   1.0000
     1.0000   1.0000   1.0000   1.0000   1.0000   1.0000   1.0000   1.0000
     1.0000   1.0000   1.0000   1.0000   1.0000   1.0000   1.0000   1.0000
     1.0000   1.0000   1.0000   1.0000   1.0000   1.0000   1.0000   1.0000
     1.0000   1.0000   1.0000   1.0000   1.0000   1.0000   1.0000   1.0000
     1.0000   1.0000   1.0000   1.0000   1.0000   1.0000   1.0000   1.0000
     1.0000   1.0000   1.0000   1.0000   1.0000   1.0000   1.0000   1.0000
     1.0000   1.0000   1.0000   1.0000   1.0000   1.0000   1.0000   1.0000
     1.0000   1.0000   1.0000   1.0000   1.0000   1.0000   1.0000   1.0000
     1.0000   1.0000   1.0000   1.0000   1.0000   1.0000   1.0000   1.0000
     1.0000   1.0000   1.0000   1.0000   1.0000   1.0000   1.0000   1.0000
     1.0000   1.0000   1.0000   1.0000   1.0000   1.0000   1.0000   1.0000
     1.0000   1.0000   1.0000   1.0000   1.0000   1.0000   1.0000   1.0000
     1.0000   1.0000   1.0000   1.0000   1.0000   1.0000   1.0000   1.0000
     1.0000   1.0000   1.0000   1.0000   1.0000   1.0000   1.0000   1.0000
     1.0000   1.0000   1.0000   1.0000   1.0000   1.0000   1.0000   1.0000
     1.0000   1.0000   1.0000   1.0000   1.0000   1.0000   1.0000   1.0000
     1.0000   1.0000   1.0000   1.0000   1.0000   1.0000   1.0000   1.0000
     1.0000   1.0000   1.0000   1.0000   1.0000   1.0000   1.0000   1.0000
     1.0000   1.0000   1.0000   1.0000   1.0000   1.0000   1.0000   1.0000
     1.0000   1.0000   1.0000   1.0000   1.0000   1.0000   1.0000   1.0000
     1.0000   1.0000   1.0000   1.0000   1.0000   1.0000   1.0000   1.0000
     1.0000   1.0000   1.0000   1.0000   1.0000   1.0000   1.0000   1.0000
     1.0000   1.0000   1.0000   1.0000   1.0000   1.0000   1.0000   1.0000
     1.0000   1.0000   1.0000   1.0000   1.0000   1.0000   1.0000   1.0000
     1.0000   1.0000   1.0000   1.0000   1.0000   1.0000   1.0000   1.0000
     1.0000   1.0000   1.0000   1.0000   1.0000   1.0000   1.0000   1.0000
     1.0000   1.0000   1.0000   1.0000   1.0000   1.0000   1.0000   1.0000
     1.0066   1.0671   0.2160   0.0050   0.0000   0.0000   0.0000   0.0000
     0.0000   0.0000   0.0000   0.0000   0.0000   0.0000   0.0000   0.0000
     0.0000   0.0000   0.0000   0.0000   0.0000   0.0000   0.0000   0.0000
     0.0000   0.0000   0.0000   0.0000   0.0000   0.0000   0.0000   0.0000
     0.0000   0.0000   0.0000   0.0000   0.0000   0.0000   0.0000   0.0000
     0.0000   0.0000   0.0000   0.0000   0.0000   0.0000   0.0000   0.0000
     0.0000   0.0000   0.0000   0.0000

          k =-0.5000-0.2887-0.2282 ( 25280 PWs)   bands (ev):

  -186.2999-184.5386-176.3589-176.1451-138.6637-134.5430-122.6347-122.3740
  -121.3593-119.1330-117.7891-117.2277-115.8613-115.2958-114.5086-112.8543
  -111.4981-111.1574-108.8666-108.2205-107.4498-106.9370-105.9311-104.6696
  -104.4589-103.8874-103.8625-103.3904-103.0548-102.3642-101.7587-101.0772
  -100.2206 -98.8814 -98.5241 -92.8905 -89.8721 -87.4586 -87.3148 -85.7442
   -84.1136 -82.9746 -82.1962 -81.9918 -80.9964 -79.9357 -79.4419 -78.0895
   -77.3882 -76.4443 -75.6060 -75.3982 -74.7185 -73.9420 -73.1356 -72.6559
   -72.1128 -71.8983 -71.5381 -71.1047 -70.9969 -70.8077 -70.4741 -70.1468
   -69.6611 -69.5013 -69.2552 -69.0895 -68.7270 -68.6023 -68.3191 -67.9873
   -67.8215 -67.3519 -66.8715 -65.9590 -65.4809 -65.4535 -65.2710 -64.9899
   -64.9142 -64.6972 -64.5923 -64.4770 -64.1387 -64.0557 -63.5079 -63.3541
   -63.3010 -62.8833 -62.5961 -62.5185 -62.2212 -61.7702 -61.5947 -61.4517
   -60.9388 -60.7178 -59.1019 -58.7432 -58.2628 -56.5994 -56.1423 -52.9535
   -38.3985 -38.1288 -37.5424 -36.9596 -34.4285 -33.9823 -32.8262 -31.7424
   -31.5100 -31.0018 -30.6260 -29.9890 -29.8028 -29.6062 -28.7899 -28.3148
   -27.7166 -27.4659 -27.1752 -26.4876 -25.8078 -24.9458 -23.7954 -23.1765
   -22.8590 -21.5574 -21.0824 -20.1914 -19.5973 -19.3447 -18.4990 -18.1555
   -17.7738 -17.3514 -16.9761 -16.4564 -16.2253 -15.7406 -15.3638 -15.2353
   -15.0700 -14.8565 -14.7190 -14.0073 -13.8592 -13.5570 -13.3963 -12.9656
   -12.3876 -12.3428 -12.0450 -11.6850 -11.5897 -11.3035 -10.7341 -10.1864
   -10.0023  -9.8590  -9.5369  -9.2171  -9.1025  -8.8670  -8.7249  -8.5819
    -8.2137  -7.8277  -7.7621  -7.5024  -7.4372  -7.3283  -7.0918  -6.9426
    -6.8103  -6.6598  -6.2106  -6.1162  -5.8968  -5.7441  -5.7005  -5.3441
    -4.9423  -4.7831  -4.6089  -4.5118  -4.2238  -3.9859  -3.6334  -3.4466
    -3.4075  -3.1878  -2.8678  -2.7972  -2.7286  -2.5547  -2.1768  -2.1214
    -1.9738  -1.8357  -1.7619  -1.5917  -1.4367  -1.2259  -1.1147  -0.8684
    -0.5852  -0.4769  -0.1279  -0.1064   0.1721   0.2441   0.3662   0.5364
     0.6678   0.8805   0.9679   1.0665   1.2354   1.3869   1.6956   2.0528
     2.1388   2.2534   2.5542   2.8320   3.0835   3.3014   3.3279   3.6065
     3.6868   3.8471   3.8664   4.0381   4.2164   4.4555   4.6244   4.9233
     5.1928   5.2955   5.6901   5.8649   6.0297   6.1322   6.1950   6.4388
     6.5900   6.6950   6.7989   7.1185   7.5061   7.6519   8.1370   8.2736
     8.4838   8.6452   8.6503   8.9433   9.0684   9.4027   9.4235   9.4540
     9.9957  10.3866  10.4674  10.4693  10.5538  10.8006  11.0405  11.1641
    11.2278  11.2931  11.3548  11.4934  11.6620  12.1524  12.3884  12.5313
    12.7128  12.8223  12.8940  13.1355  13.1575  13.4821  13.4959  13.5957
    13.9269  14.0236  14.2352  14.2922

     occupation numbers 
     1.0000   1.0000   1.0000   1.0000   1.0000   1.0000   1.0000   1.0000
     1.0000   1.0000   1.0000   1.0000   1.0000   1.0000   1.0000   1.0000
     1.0000   1.0000   1.0000   1.0000   1.0000   1.0000   1.0000   1.0000
     1.0000   1.0000   1.0000   1.0000   1.0000   1.0000   1.0000   1.0000
     1.0000   1.0000   1.0000   1.0000   1.0000   1.0000   1.0000   1.0000
     1.0000   1.0000   1.0000   1.0000   1.0000   1.0000   1.0000   1.0000
     1.0000   1.0000   1.0000   1.0000   1.0000   1.0000   1.0000   1.0000
     1.0000   1.0000   1.0000   1.0000   1.0000   1.0000   1.0000   1.0000
     1.0000   1.0000   1.0000   1.0000   1.0000   1.0000   1.0000   1.0000
     1.0000   1.0000   1.0000   1.0000   1.0000   1.0000   1.0000   1.0000
     1.0000   1.0000   1.0000   1.0000   1.0000   1.0000   1.0000   1.0000
     1.0000   1.0000   1.0000   1.0000   1.0000   1.0000   1.0000   1.0000
     1.0000   1.0000   1.0000   1.0000   1.0000   1.0000   1.0000   1.0000
     1.0000   1.0000   1.0000   1.0000   1.0000   1.0000   1.0000   1.0000
     1.0000   1.0000   1.0000   1.0000   1.0000   1.0000   1.0000   1.0000
     1.0000   1.0000   1.0000   1.0000   1.0000   1.0000   1.0000   1.0000
     1.0000   1.0000   1.0000   1.0000   1.0000   1.0000   1.0000   1.0000
     1.0000   1.0000   1.0000   1.0000   1.0000   1.0000   1.0000   1.0000
     1.0000   1.0000   1.0000   1.0000   1.0000   1.0000   1.0000   1.0000
     1.0000   1.0000   1.0000   1.0000   1.0000   1.0000   1.0000   1.0000
     1.0000   1.0000   1.0000   1.0000   1.0000   1.0000   1.0000   1.0000
     1.0000   1.0000   1.0000   1.0000   1.0000   1.0000   1.0000   1.0000
     1.0000   1.0000   1.0000   1.0000   1.0000   1.0000   1.0000   1.0000
     1.0000   1.0000   1.0000   1.0000   1.0000   1.0000   1.0000   1.0000
     1.0000   1.0000   1.0000   1.0000   1.0000   1.0000   1.0000   1.0000
     1.0000   1.0000   1.0000   1.0000   1.0000   1.0000   1.0000   1.0000
     1.0000   1.0000   1.0000   1.0000   1.0000   1.0000   1.0000   1.0000
     1.0000   1.0000   1.0000   1.0000   1.0000   1.0000   1.0000   1.0000
     1.0000   1.0000   1.0000   1.0000   1.0000   1.0000   1.0000   1.0000
     1.0000   1.0000   1.0000   1.0000   1.0000   1.0000   1.0000   1.0002
     1.0367   1.0800   0.1618   0.0091   0.0002   0.0000   0.0000   0.0000
     0.0000   0.0000   0.0000   0.0000   0.0000   0.0000   0.0000   0.0000
[...]
     atom    9 type  1   force =   -18.61539780  179.18353300  -39.81235683
     atom   10 type  1   force =     3.51332101   -0.22745728   -0.25893655
     atom   11 type  1   force =    -1.99386303    4.34082173   -0.20996931
     atom   12 type  1   force =     2.51865435   -1.87279483   -0.10600849
     atom   13 type  1   force =    29.37769875 -162.08639646   39.16889015
     atom   14 type  1   force =     0.53625996   -1.46538296    0.15255787
     atom   15 type  1   force =     9.72820584    0.69744628    0.48771231
     atom   16 type  1   force =    -0.90886091    3.41548846   -0.07283841
     atom   17 type  1   force =    50.41590689 -114.58664549   26.00922120
     atom   18 type  1   force =   -14.68398910  -16.77437945    0.15853005
     atom   19 type  1   force =    -8.21339266    1.89075221   -0.49608461
     atom   20 type  1   force =    -3.58098149    1.07325550   -0.64437159
     atom   21 type  1   force =   -48.36438725  113.36302222  -25.77141493
     atom   22 type  1   force =    -6.80627198    3.36324046   -0.67749190
     atom   23 type  1   force =   -18.01741534  180.98981028  -39.71638535
     atom   24 type  1   force =     6.51575995   -2.34593585   -1.54965477
     atom   25 type  1   force =     3.57071974   -3.46653744    0.64481008
     atom   26 type  1   force =    -9.27533056    3.60886551    1.58133864
     atom   27 type  1   force =     7.25424488   -5.14220697    0.71018273
     The non-local contrib.  to forces
     atom    1 type  1   force =    -2.99210855    4.02212335   -0.27377228
     atom    2 type  1   force =    -3.49816809   27.81537919   -7.35243993
     atom    3 type  1   force =     0.42432969    2.31600432   -0.37144616
     atom    4 type  1   force =    -5.82474463    1.91302185   -0.76019259
     atom    5 type  1   force =     3.11844407   -1.31600986    0.01019233
     atom    6 type  1   force =    -9.36928718   22.18717665   -6.02639696
     atom    7 type  1   force =     4.00844194   -0.38419181    0.52464259
     atom    8 type  1   force =     9.82796319  -21.04679146    5.90416314
     atom    9 type  1   force =     2.28346565  -29.10602482    7.69098786
     atom   10 type  1   force =    -2.45688146   -0.10136134    0.23394418
     atom   11 type  1   force =     0.74637200   -4.03060933    0.31925714
     atom   12 type  1   force =    -0.00391685    1.08512328    0.11625436
     atom   13 type  1   force =    -5.86286549   26.67385231   -7.53716257
     atom   14 type  1   force =    -0.33036390    0.59361320   -0.13094221
     atom   15 type  1   force =    -5.58523773    0.34381140   -0.70989014
     atom   16 type  1   force =    -0.25460515   -3.30736741    0.22769547
     atom   17 type  1   force =    -9.88552361   22.10162294   -6.01421414
     atom   18 type  1   force =     2.90132213    5.15100968   -0.15943522
     atom   19 type  1   force =     3.61484511   -1.72960215    0.50411398
     atom   20 type  1   force =     2.91672145   -2.35241140    0.56390610
     atom   21 type  1   force =     9.80189162  -22.54781495    5.72467888
     atom   22 type  1   force =     3.39731051   -2.91911327    0.46766647
     atom   23 type  1   force =     2.75740843  -32.75747442    7.88958734
     atom   24 type  1   force =    -2.89404195    2.17556161    1.31533662
     atom   25 type  1   force =    -3.04750318    3.67134787   -0.45108221
     atom   26 type  1   force =     4.72109293   -2.68890758   -1.39980749
     atom   27 type  1   force =    -3.00732389    3.84266158   -0.51317544
     The ionic contribution  to forces
     atom    1 type  1   force =    42.62165828 -146.39972230   48.75687892
     atom    2 type  1   force =    60.84006990 -401.18757450  142.75447748
     atom    3 type  1   force =   -52.01605307  -96.25356996   53.31335807
     atom    4 type  1   force =   151.72837143  -73.63429057   56.10196493
     atom    5 type  1   force =   -57.46985396  -65.74637976   45.92934059
     atom    6 type  1   force =   107.57551958 -304.11227288  129.40042032
     atom    7 type  1   force =  -136.16830989  -18.32908429  -16.13819445
     atom    8 type  1   force =  -122.14873528  216.74714570  -83.09865608
     atom    9 type  1   force =    -8.29758968  345.48959545 -118.02612776
     atom   10 type  1   force =    92.68947794   50.01782224  -51.08918242
     atom   11 type  1   force =    19.10939467  140.50284148  -47.48261483
     atom   12 type  1   force =   -37.73551064   69.33992982  -45.25043891
     atom   13 type  1   force =    73.15810573 -253.78935232  103.30167523
     atom   14 type  1   force =    18.23819361   -8.55555050    3.02680877
     atom   15 type  1   force =   166.28225370   43.56506961   16.69092264
     atom   16 type  1   force =    28.01281873   61.18417211   -1.32525587
     atom   17 type  1   force =    95.81730638 -223.77446370   90.63505127
     atom   18 type  1   force =  -125.86433892 -104.47012579    2.99735809
     atom   19 type  1   force =  -107.24499136   75.91913583  -54.55343230
     atom   20 type  1   force =   -71.30767815   67.87317092  -60.24209003
     atom   21 type  1   force =  -133.43487271  318.54093460 -120.00501586
     atom   22 type  1   force =  -113.72288958   93.29435749  -61.31195313
     atom   23 type  1   force =   -38.77040555  477.29593784 -157.51436812
     atom   24 type  1   force =    83.00299994  -18.41658997  -78.61831019
     atom   25 type  1   force =    87.11927164 -136.04173465   59.56922990
     atom   26 type  1   force =  -122.96077455   15.50314181   79.74542713
     atom   27 type  1   force =   100.94656181 -124.56254371   62.43272663
     The local contribution  to forces
     atom    1 type  1   force =   -15.29115201  137.48259262  -48.24181541
     atom    2 type  1   force =   -40.74179798  199.03216020  -95.99185094
     atom    3 type  1   force =    50.98289737   90.63381329  -52.54361696
     atom    4 type  1   force =  -136.29829419   70.94081473  -54.78617750
     atom    5 type  1   force =    27.34173869   68.45931541  -45.84631717
     atom    6 type  1   force =   -47.67996080  167.40276210  -97.46547281
     atom    7 type  1   force =   123.56316667   19.56424854   15.16587299
     atom    8 type  1   force =    64.49906147  -84.20427675   51.47477136
     atom    9 type  1   force =   -12.61792132 -137.05534983   70.48941834
     atom   10 type  1   force =   -86.70424108  -50.15045646   50.59551870
     atom   11 type  1   force =   -21.86076800 -132.11388677   46.95321762
     atom   12 type  1   force =    40.27729224  -72.31178626   45.02802056
     atom   13 type  1   force =   -37.86369211   64.95981280  -56.56647049
     atom   14 type  1   force =   -17.36960321    6.48528315   -2.74265047
     atom   15 type  1   force =  -150.91884973  -43.20324867  -15.49331141
     atom   16 type  1   force =   -28.67400105  -54.45082706    1.02499567
     atom   17 type  1   force =   -35.47959013   86.99320568  -58.58867173
     atom   18 type  1   force =   108.23574520   82.47817877   -2.67560771
     atom   19 type  1   force =    95.37708768  -72.29523275   53.55117424
     atom   20 type  1   force =    64.79946222  -64.45077956   59.03231755
     atom   21 type  1   force =    75.24503760 -182.54723194   88.48567421
     atom   22 type  1   force =   103.49113210  -86.99575212   60.16398913
     atom   23 type  1   force =    17.98308007 -263.40101073  109.87488142
     atom   24 type  1   force =   -73.56315172   13.88645262   75.74819207
     atom   25 type  1   force =   -80.48973751  128.88970618  -58.47002811
     atom   26 type  1   force =   108.92052339   -9.18695079  -76.75952444
     atom   27 type  1   force =   -90.65087544  115.55206748  -61.20645714
     The core correction contribution to forces
     atom    1 type  1   force =    -0.07591331    0.02363226   -0.00108775
     atom    2 type  1   force =    -0.00871676    0.11385034   -0.03124466
     atom    3 type  1   force =     0.00421386    0.01305086   -0.00117637
     atom    4 type  1   force =    -0.04053123   -0.00792301   -0.00040989
     atom    5 type  1   force =     0.09301428   -0.01164891   -0.00146807
     atom    6 type  1   force =    -0.03800986    0.09003013   -0.02466980
     atom    7 type  1   force =     0.04162988   -0.00435146    0.00071490
     atom    8 type  1   force =     0.02027322   -0.07796197    0.02183052
     atom    9 type  1   force =     0.01666084   -0.14453952    0.03334212
     atom   10 type  1   force =    -0.01524017    0.00665809    0.00077711
     atom   11 type  1   force =     0.01131999   -0.01750966    0.00016646
     atom   12 type  1   force =    -0.01896698    0.01404375    0.00015360
     atom   13 type  1   force =    -0.05386467    0.06946134   -0.02917091
     atom   14 type  1   force =    -0.00203075    0.01133921   -0.00066615
     atom   15 type  1   force =    -0.05000812   -0.00798995   -0.00002685
     atom   16 type  1   force =     0.00700905   -0.01042285   -0.00027780
     atom   17 type  1   force =    -0.03623953    0.09299028   -0.02293887
     atom   18 type  1   force =     0.04332173    0.06669988   -0.00379690
     atom   19 type  1   force =     0.03948694   -0.00346539    0.00204916
     atom   20 type  1   force =     0.01046353    0.00324013    0.00148178
     atom   21 type  1   force =     0.02353490   -0.08285148    0.02323636
     atom   22 type  1   force =     0.02837545   -0.01624469    0.00281418
     atom   23 type  1   force =     0.01253724   -0.14745244    0.03351772
     atom   24 type  1   force =    -0.03014046    0.00860563    0.00513671
     atom   25 type  1   force =    -0.01119708    0.01412850   -0.00330596
     atom   26 type  1   force =     0.04379981   -0.01868868   -0.00481177
     atom   27 type  1   force =    -0.03435647    0.02535121   -0.00294755
     The Hubbard contrib.    to forces
     atom    1 type  1   force =     0.00000000    0.00000000    0.00000000
     atom    2 type  1   force =     0.00000000    0.00000000    0.00000000
     atom    3 type  1   force =     0.00000000    0.00000000    0.00000000
     atom    4 type  1   force =     0.00000000    0.00000000    0.00000000
     atom    5 type  1   force =     0.00000000    0.00000000    0.00000000
     atom    6 type  1   force =     0.00000000    0.00000000    0.00000000
     atom    7 type  1   force =     0.00000000    0.00000000    0.00000000
     atom    8 type  1   force =     0.00000000    0.00000000    0.00000000
     atom    9 type  1   force =     0.00000000    0.00000000    0.00000000
     atom   10 type  1   force =     0.00000000    0.00000000    0.00000000
     atom   11 type  1   force =     0.00000000    0.00000000    0.00000000
     atom   12 type  1   force =     0.00000000    0.00000000    0.00000000
     atom   13 type  1   force =     0.00000000    0.00000000    0.00000000
     atom   14 type  1   force =     0.00000000    0.00000000    0.00000000
     atom   15 type  1   force =     0.00000000    0.00000000    0.00000000
     atom   16 type  1   force =     0.00000000    0.00000000    0.00000000
     atom   17 type  1   force =     0.00000000    0.00000000    0.00000000
     atom   18 type  1   force =     0.00000000    0.00000000    0.00000000
     atom   19 type  1   force =     0.00000000    0.00000000    0.00000000
     atom   20 type  1   force =     0.00000000    0.00000000    0.00000000
     atom   21 type  1   force =     0.00000000    0.00000000    0.00000000
     atom   22 type  1   force =     0.00000000    0.00000000    0.00000000
     atom   23 type  1   force =     0.00000000    0.00000000    0.00000000
     atom   24 type  1   force =     0.00000000    0.00000000    0.00000000
     atom   25 type  1   force =     0.00000000    0.00000000    0.00000000
     atom   26 type  1   force =     0.00000000    0.00000000    0.00000000
     atom   27 type  1   force =     0.00000000    0.00000000    0.00000000
     The SCF correction term to forces
     atom    1 type  1   force =    -0.00005991    0.00000401    0.00001538
     atom    2 type  1   force =    -0.00008740   -0.00007699    0.00001279
     atom    3 type  1   force =    -0.00005939    0.00016252    0.00001459
     atom    4 type  1   force =    -0.00007851    0.00002445    0.00001113
     atom    5 type  1   force =     0.00018591    0.00006754    0.00001759
     atom    6 type  1   force =     0.00005652    0.00012560    0.00000998
     atom    7 type  1   force =     0.00003728    0.00009533    0.00001055
     atom    8 type  1   force =    -0.00003598    0.00004284    0.00001655
     atom    9 type  1   force =    -0.00001373   -0.00014625    0.00003026
     atom   10 type  1   force =     0.00020534   -0.00011778    0.00001353
     atom   11 type  1   force =    -0.00018213   -0.00001196    0.00001196
     atom   12 type  1   force =    -0.00024386   -0.00010338    0.00000955
     atom   13 type  1   force =     0.00001484   -0.00016857    0.00002654
     atom   14 type  1   force =     0.00006378   -0.00006598    0.00001558
     atom   15 type  1   force =     0.00004728   -0.00019407    0.00002572
     atom   16 type  1   force =    -0.00008294   -0.00006430    0.00001178
     atom   17 type  1   force =    -0.00004666    0.00000133    0.00000233
     atom   18 type  1   force =    -0.00003968   -0.00013996    0.00001944
     atom   19 type  1   force =     0.00017853   -0.00008130    0.00001796
     atom   20 type  1   force =     0.00004902    0.00003744    0.00002067
     atom   21 type  1   force =     0.00002090   -0.00001197    0.00001914
     atom   22 type  1   force =    -0.00020090   -0.00000491   -0.00000089
     atom   23 type  1   force =    -0.00003597   -0.00018794    0.00000395
     atom   24 type  1   force =     0.00009369    0.00003630   -0.00000233
     atom   25 type  1   force =    -0.00011457    0.00001670    0.00000412
     atom   26 type  1   force =     0.00002743    0.00027278    0.00006285
     atom   27 type  1   force =     0.00023844    0.00025850    0.00004388

     Total force =   442.711291     Total SCF correction =     0.000879


     Computing stress (Cartesian axis) and pressure

          total   stress  (Ry/bohr**3)                   (kbar)     P=    14437.80
   0.10499974  -0.02508184   0.00738165        15445.99    -3689.67     1085.88
  -0.02508184   0.18302884  -0.02973845        -3689.67    26924.47    -4374.68
   0.00738165  -0.02973845   0.00641002         1085.88    -4374.68      942.95

     kinetic stress (kbar)  26838.49   -177.19     50.59
                             -177.19  27716.06   -197.16
                               50.59   -197.16  27170.47

     local   stress (kbar)**********  -3190.28  -5181.40
                            -3190.28**********  23089.61
                            -5181.40  23089.612418964.51

     nonloc. stress (kbar)  14419.37    191.48    -44.42
                              191.48  13986.55    123.08
                              -44.42    123.08  15607.59

     hartree stress (kbar)1166132.14   2121.35   1699.49
                             2121.351155406.90  -8390.17
                             1699.49  -8390.17**********

     exc-cor stress (kbar)  -8347.61     -1.30      1.01
                               -1.30  -8351.22     -3.05
                                1.01     -3.05  -8401.24

     corecor stress (kbar)  -1487.74     -0.93      0.13
                               -0.93  -1484.48     -0.13
                                0.13     -0.13  -1484.61

     ewald   stress (kbar)1160943.20  -2632.81   4560.47
                            -2632.811154456.07 -18996.86
                             4560.47 -18996.86**********

     hubbard stress (kbar)      0.00      0.00      0.00
                                0.00      0.00      0.00
                                0.00      0.00      0.00

     london  stress (kbar)      0.00      0.00      0.00
                                0.00      0.00      0.00
                                0.00      0.00      0.00

     DFT-D3  stress (kbar)      0.00      0.00      0.00
                                0.00      0.00      0.00
                                0.00      0.00      0.00

     XDM     stress (kbar)      0.00      0.00      0.00
                                0.00      0.00      0.00
                                0.00      0.00      0.00

     dft-nl  stress (kbar)      0.00      0.00      0.00
                                0.00      0.00      0.00
                                0.00      0.00      0.00

     TS-vdW  stress (kbar)      0.00      0.00      0.00
                                0.00      0.00      0.00
                                0.00      0.00      0.00



     Writing output data file /tmp//ni_111_slab+vacuum_scf.save/
 
     init_run     :     63.30s CPU    103.01s WALL (       1 calls)
     electrons    :   5381.24s CPU   9363.76s WALL (       1 calls)
     forces       :     17.44s CPU     18.92s WALL (       1 calls)
     stress       :     88.07s CPU     96.87s WALL (       1 calls)

     Called by init_run:
     wfcinit      :     60.81s CPU     97.99s WALL (       1 calls)
     wfcinit:atom :      0.11s CPU      0.18s WALL (      16 calls)
     wfcinit:wfcr :     59.69s CPU     96.36s WALL (      16 calls)
     potinit      :      0.73s CPU      1.58s WALL (       1 calls)
     hinit0       :      1.05s CPU      2.12s WALL (       1 calls)

     Called by electrons:
     c_bands      :   4831.06s CPU   8449.06s WALL (      46 calls)
     sum_band     :    503.19s CPU    839.06s WALL (      46 calls)
     v_of_rho     :     19.37s CPU     29.85s WALL (      47 calls)
     v_h          :      0.61s CPU      0.87s WALL (      47 calls)
     v_xc         :     19.46s CPU     29.85s WALL (      49 calls)
     newd         :     22.09s CPU     36.79s WALL (      47 calls)
     mix_rho      :      4.24s CPU      6.70s WALL (      46 calls)

     Called by c_bands:
     init_us_2    :      9.83s CPU     11.45s WALL (    1520 calls)
     cegterg      :   4705.31s CPU   8257.92s WALL (     736 calls)

     Called by sum_band:
     sum_band:bec :      1.22s CPU      1.24s WALL (     736 calls)
     addusdens    :     26.28s CPU     40.75s WALL (      46 calls)

     Called by *egterg:
     h_psi        :   2086.71s CPU   3679.44s WALL (    3173 calls)
     s_psi        :    289.23s CPU    450.28s WALL (    3173 calls)
     g_psi        :     10.73s CPU     17.02s WALL (    2421 calls)
     cdiaghg      :   1036.98s CPU   1999.65s WALL (    3157 calls)
     cegterg:over :    580.23s CPU    955.15s WALL (    2421 calls)
     cegterg:upda :    299.61s CPU    500.52s WALL (    2421 calls)
     cegterg:last :    217.52s CPU    359.48s WALL (     768 calls)
     cdiaghg:chol :     52.10s CPU    110.39s WALL (    3157 calls)
     cdiaghg:inve :     20.49s CPU     26.93s WALL (    3157 calls)
     cdiaghg:para :    292.12s CPU    511.50s WALL (    6314 calls)

     Called by h_psi:
     h_psi:calbec :    361.31s CPU    565.67s WALL (    3173 calls)
     vloc_psi     :   1430.39s CPU   2669.58s WALL (    3173 calls)
     add_vuspsi   :    290.71s CPU    430.35s WALL (    3173 calls)

     General routines
     calbec       :    535.23s CPU    822.81s WALL (    3989 calls)
     fft          :     17.74s CPU     27.25s WALL (    1213 calls)
     ffts         :      0.49s CPU      1.02s WALL (     186 calls)
     fftw         :   1616.64s CPU   3087.57s WALL ( 1195082 calls)
     interpolate  :      0.98s CPU      1.69s WALL (      94 calls)
 
     Parallel routines
     fft_scatt_xy :    117.51s CPU    121.94s WALL ( 1196481 calls)
     fft_scatt_yz :    951.54s CPU   2411.24s WALL ( 1196481 calls)
 
     PWSCF        :      1h32m CPU      2h40m WALL

 
   This run was terminated on:  19: 6:10   2Aug2022            

=------------------------------------------------------------------------------=
   JOB DONE.
=------------------------------------------------------------------------------=
